TACC: Starting up job 6054383
TACC: Setting up parallel environment for MVAPICH2+mpispawn.
TACC: Starting parallel tasks...

     Program PHONON v.5.1.2 starts on 15Nov2015 at 13:10: 9 

     This program is part of the open-source Quantum ESPRESSO suite
     for quantum simulation of materials; please cite
         "P. Giannozzi et al., J. Phys.:Condens. Matter 21 395502 (2009);
          URL http://www.quantum-espresso.org", 
     in publications or presentations arising from this work. More details at
     http://www.quantum-espresso.org/quote

     Parallel version (MPI), running on    32 processors
     K-points division:     npool     =       8
     R & G space division:  proc/nbgrp/npool/nimage =       4

     Reading data from directory:
     ./GaAs.save

   Info: using nr1, nr2, nr3 values from input

   Info: using nr1s, nr2s, nr3s values from input

     IMPORTANT: XC functional enforced from input :
     Exchange-correlation      =  SLA  PW   PBX  PBC ( 1  4  3  4 0 0)
     Any further DFT definition will be discarded
     Please, verify this is what you really want

               file Ga.pbe-dn-kjpaw_psl.0.2.upf: wavefunction(s)  4S 3D renormalized
 
     Parallelization info
     --------------------
     sticks:   dense  smooth     PW     G-vecs:    dense   smooth      PW
     Min         586     192     60                18861     3585     610
     Max         587     193     61                18866     3596     613
     Sum        2347     769    241                75457    14361    2445
 


     Dynamical matrices for ( 4, 4, 4)  uniform grid of q-points
     (   8q-points):
       N         xq(1)         xq(2)         xq(3) 
       1   0.000000000   0.000000000   0.000000000
       2  -0.250000000   0.250000000  -0.250000000
       3   0.500000000  -0.500000000   0.500000000
       4   0.000000000   0.500000000   0.000000000
       5   0.750000000  -0.250000000   0.750000000
       6   0.500000000   0.000000000   0.500000000
       7   0.000000000  -1.000000000   0.000000000
       8  -0.500000000  -1.000000000   0.000000000

     Calculation of q =    0.0000000   0.0000000   0.0000000

                                                                                

     bravais-lattice index     =            2
     lattice parameter (alat)  =      10.6867  a.u.
     unit-cell volume          =     305.1201 (a.u.)^3
     number of atoms/cell      =            2
     number of atomic types    =            2
     kinetic-energy cut-off    =      50.0000  Ry
     charge density cut-off    =     600.0000  Ry
     convergence threshold     =      1.0E-14
     beta                      =       0.3000
     number of iterations used =            4
     Exchange-correlation      =  SLA  PW   PBX  PBC ( 1  4  3  4 0 0)


     celldm(1)=   10.68670  celldm(2)=    0.00000  celldm(3)=    0.00000
     celldm(4)=    0.00000  celldm(5)=    0.00000  celldm(6)=    0.00000

     crystal axes: (cart. coord. in units of alat)
               a(1) = ( -0.5000  0.0000  0.5000 )  
               a(2) = (  0.0000  0.5000  0.5000 )  
               a(3) = ( -0.5000  0.5000  0.0000 )  

     reciprocal axes: (cart. coord. in units 2 pi/alat)
               b(1) = ( -1.0000 -1.0000  1.0000 )  
               b(2) = (  1.0000  1.0000  1.0000 )  
               b(3) = ( -1.0000  1.0000 -1.0000 )  


     Atoms inside the unit cell: 

     Cartesian axes

     site n.  atom      mass           positions (alat units)
        1     Ga  69.7230   tau(    1) = (    0.00000    0.00000    0.00000  )
        2     As  74.9216   tau(    2) = (    0.25000    0.25000    0.25000  )

     Computing dynamical matrix for 
                    q = (   0.0000000   0.0000000   0.0000000 )
 
     25 Sym.Ops. (with q -> -q+G )


     G cutoff = 1735.7163  (  18866 G-vectors)     FFT grid: ( 60, 60, 60)
     G cutoff =  578.5721  (   3596 G-vectors)  smooth grid: ( 36, 36, 36)
     number of k points=    29

     PseudoPot. # 1 for Ga read from file:
     ./Ga.pbe-dn-kjpaw_psl.0.2.upf
     MD5 check sum: f703b3f64ba021741ea9c16c693bf590
     Pseudo is Projector augmented-wave + core cor, Zval = 13.0
     Generated using "atomic" code by A. Dal Corso  v.5.0.99 svn rev. 10869
     Shape of augmentation charge: BESSEL
     Using radial grid of 1205 points,  6 beta functions with: 
                l(1) =   0
                l(2) =   0
                l(3) =   1
                l(4) =   1
                l(5) =   2
                l(6) =   2
     Q(r) pseudized with 0 coefficients 


     PseudoPot. # 2 for As read from file:
     ./As.pbe-n-kjpaw_psl.0.2.upf
     MD5 check sum: 076d91deeb42e24e5cc35739acc2a16c
     Pseudo is Projector augmented-wave + core cor, Zval =  5.0
     Generated using "atomic" code by A. Dal Corso  v.5.0.99 svn rev. 10869
     Shape of augmentation charge: PSQ
     Using radial grid of 1209 points,  4 beta functions with: 
                l(1) =   0
                l(2) =   0
                l(3) =   1
                l(4) =   1
     Q(r) pseudized with 0 coefficients 


     Mode symmetry, T_d (-43m)  point group:


     Electric field:
     Dielectric constant
     Born effective charges in two ways 


     Atomic displacements:
     There are   2 irreducible representations

     Representation     1      3 modes -T_2  G_15 P_4  To be done

     Representation     2      3 modes -T_2  G_15 P_4  To be done



     Alpha used in Ewald sum =   2.8000
     PHONON       :     5.52s CPU         6.56s WALL


     Electric Fields Calculation

      iter #   1 total cpu time :     9.5 secs   av.it.:   6.2
      thresh= 1.000E-02 alpha_mix =  0.300 |ddv_scf|^2 =  2.404E-08

      iter #   2 total cpu time :    11.6 secs   av.it.:  11.1
      thresh= 1.551E-05 alpha_mix =  0.300 |ddv_scf|^2 =  8.661E-09

      iter #   3 total cpu time :    13.8 secs   av.it.:  11.3
      thresh= 9.306E-06 alpha_mix =  0.300 |ddv_scf|^2 =  8.635E-10

      iter #   4 total cpu time :    16.7 secs   av.it.:  11.6
      thresh= 2.939E-06 alpha_mix =  0.300 |ddv_scf|^2 =  1.425E-11

      iter #   5 total cpu time :    18.9 secs   av.it.:  11.3
      thresh= 3.775E-07 alpha_mix =  0.300 |ddv_scf|^2 =  2.944E-12

      iter #   6 total cpu time :    21.4 secs   av.it.:  11.7
      thresh= 1.716E-07 alpha_mix =  0.300 |ddv_scf|^2 =  2.862E-14

      iter #   7 total cpu time :    23.6 secs   av.it.:  11.9
      thresh= 1.692E-08 alpha_mix =  0.300 |ddv_scf|^2 =  1.966E-15

     End of electric fields calculation

          Dielectric constant in cartesian axis 

          (      30.081893415       0.000000000       0.000000000 )
          (       0.000000000      30.081893415       0.000000000 )
          (       0.000000000       0.000000000      30.081893415 )

          Effective charges (d Force / dE) in cartesian axis

           atom      1   Ga 
      Ex  (        2.20312        0.00000        0.00000 )
      Ey  (       -0.00000        2.20312       -0.00000 )
      Ez  (        0.00000       -0.00000        2.20312 )
           atom      2   As 
      Ex  (       -2.46906       -0.00000       -0.00000 )
      Ey  (       -0.00000       -2.46906       -0.00000 )
      Ez  (       -0.00000       -0.00000       -2.46906 )


     Representation #  1 modes #   1  2  3

     Self-consistent Calculation

      iter #   1 total cpu time :    28.4 secs   av.it.:   4.5
      thresh= 1.000E-02 alpha_mix =  0.300 |ddv_scf|^2 =  8.277E-09

      iter #   2 total cpu time :    31.3 secs   av.it.:  10.6
      thresh= 9.098E-06 alpha_mix =  0.300 |ddv_scf|^2 =  2.829E-09

      iter #   3 total cpu time :    33.6 secs   av.it.:  11.4
      thresh= 5.319E-06 alpha_mix =  0.300 |ddv_scf|^2 =  1.240E-10

      iter #   4 total cpu time :    36.2 secs   av.it.:  11.1
      thresh= 1.114E-06 alpha_mix =  0.300 |ddv_scf|^2 =  3.243E-12

      iter #   5 total cpu time :    38.5 secs   av.it.:  11.2
      thresh= 1.801E-07 alpha_mix =  0.300 |ddv_scf|^2 =  7.399E-13

      iter #   6 total cpu time :    41.3 secs   av.it.:  11.6
      thresh= 8.601E-08 alpha_mix =  0.300 |ddv_scf|^2 =  1.690E-14

      iter #   7 total cpu time :    44.5 secs   av.it.:  11.6
      thresh= 1.300E-08 alpha_mix =  0.300 |ddv_scf|^2 =  6.824E-16

     End of self-consistent calculation

     Convergence has been achieved 


     Representation #  2 modes #   4  5  6

     Self-consistent Calculation

      iter #   1 total cpu time :    48.0 secs   av.it.:   6.7
      thresh= 1.000E-02 alpha_mix =  0.300 |ddv_scf|^2 =  5.941E-07

      iter #   2 total cpu time :    51.1 secs   av.it.:  11.3
      thresh= 7.707E-05 alpha_mix =  0.300 |ddv_scf|^2 =  1.653E-07

      iter #   3 total cpu time :    54.0 secs   av.it.:  12.0
      thresh= 4.066E-05 alpha_mix =  0.300 |ddv_scf|^2 =  2.539E-09

      iter #   4 total cpu time :    58.2 secs   av.it.:  11.4
      thresh= 5.039E-06 alpha_mix =  0.300 |ddv_scf|^2 =  2.926E-11

      iter #   5 total cpu time :    62.9 secs   av.it.:  10.0
      thresh= 5.409E-07 alpha_mix =  0.300 |ddv_scf|^2 =  8.566E-12

      iter #   6 total cpu time :    66.7 secs   av.it.:  11.9
      thresh= 2.927E-07 alpha_mix =  0.300 |ddv_scf|^2 =  1.419E-13

      iter #   7 total cpu time :    69.1 secs   av.it.:  11.5
      thresh= 3.767E-08 alpha_mix =  0.300 |ddv_scf|^2 =  1.398E-14

      iter #   8 total cpu time :    71.3 secs   av.it.:  10.5
      thresh= 1.182E-08 alpha_mix =  0.300 |ddv_scf|^2 =  5.055E-15

     End of self-consistent calculation

     Convergence has been achieved 
 
     Number of q in the star =    1
     List of q in the star:
          1   0.000000000   0.000000000   0.000000000

          Dielectric constant in cartesian axis 

          (      30.081893415       0.000000000       0.000000000 )
          (       0.000000000      30.081893415       0.000000000 )
          (       0.000000000       0.000000000      30.081893415 )

          Effective charges (d Force / dE) in cartesian axis

           atom      1   Ga 
      Ex  (        2.20312        0.00000        0.00000 )
      Ey  (       -0.00000        2.20312       -0.00000 )
      Ez  (        0.00000       -0.00000        2.20312 )
           atom      2   As 
      Ex  (       -2.46906       -0.00000       -0.00000 )
      Ey  (       -0.00000       -2.46906       -0.00000 )
      Ez  (       -0.00000       -0.00000       -2.46906 )

          Effective charges (d P / du) in cartesian axis 

           atom      1   Ga 
      Px  (        2.18310        0.00000        0.00000 )
      Py  (        0.00000        2.18310       -0.00000 )
      Pz  (        0.00000       -0.00000        2.18310 )
           atom      2   As 
      Px  (       -2.43365        0.00000       -0.00000 )
      Py  (       -0.00000       -2.43365       -0.00000 )
      Pz  (        0.00000        0.00000       -2.43365 )

     Diagonalizing the dynamical matrix

     q = (    0.000000000   0.000000000   0.000000000 ) 

 **************************************************************************
     freq (    1) =      -0.273089 [THz] =      -9.109282 [cm-1]
     freq (    2) =      -0.273089 [THz] =      -9.109282 [cm-1]
     freq (    3) =      -0.273089 [THz] =      -9.109282 [cm-1]
     freq (    4) =       8.072377 [THz] =     269.265503 [cm-1]
     freq (    5) =       8.072377 [THz] =     269.265503 [cm-1]
     freq (    6) =       8.072377 [THz] =     269.265503 [cm-1]
 **************************************************************************

     Mode symmetry, T_d (-43m)  point group:

     freq (  1 -  3) =         -9.1  [cm-1]   --> T_2  G_15 P_4   I+R
     freq (  4 -  6) =        269.3  [cm-1]   --> T_2  G_15 P_4   I+R

     Calculation of q =   -0.2500000   0.2500000  -0.2500000
 
     Parallelization info
     --------------------
     sticks:   dense  smooth     PW     G-vecs:    dense   smooth      PW
     Min         586     192     63                18861     3584     670
     Max         587     193     64                18866     3594     673
     Sum        2347     769    253                75457    14361    2685
 


     bravais-lattice index     =            2
     lattice parameter (alat)  =      10.6867  a.u.
     unit-cell volume          =     305.1201 (a.u.)^3
     number of atoms/cell      =            2
     number of atomic types    =            2
     number of electrons       =        18.00
     number of Kohn-Sham states=            9
     kinetic-energy cutoff     =      50.0000  Ry
     charge density cutoff     =     600.0000  Ry
     Exchange-correlation      =  SLA  PW   PBX  PBC ( 1  4  3  4 0 0)

     celldm(1)=  10.686700  celldm(2)=   0.000000  celldm(3)=   0.000000
     celldm(4)=   0.000000  celldm(5)=   0.000000  celldm(6)=   0.000000

     crystal axes: (cart. coord. in units of alat)
               a(1) = (  -0.500000   0.000000   0.500000 )  
               a(2) = (   0.000000   0.500000   0.500000 )  
               a(3) = (  -0.500000   0.500000   0.000000 )  

     reciprocal axes: (cart. coord. in units 2 pi/alat)
               b(1) = ( -1.000000 -1.000000  1.000000 )  
               b(2) = (  1.000000  1.000000  1.000000 )  
               b(3) = ( -1.000000  1.000000 -1.000000 )  


     PseudoPot. # 1 for Ga read from file:
     ./Ga.pbe-dn-kjpaw_psl.0.2.upf
     MD5 check sum: f703b3f64ba021741ea9c16c693bf590
     Pseudo is Projector augmented-wave + core cor, Zval = 13.0
     Generated using "atomic" code by A. Dal Corso  v.5.0.99 svn rev. 10869
     Shape of augmentation charge: BESSEL
     Using radial grid of 1205 points,  6 beta functions with: 
                l(1) =   0
                l(2) =   0
                l(3) =   1
                l(4) =   1
                l(5) =   2
                l(6) =   2
     Q(r) pseudized with 0 coefficients 


     PseudoPot. # 2 for As read from file:
     ./As.pbe-n-kjpaw_psl.0.2.upf
     MD5 check sum: 076d91deeb42e24e5cc35739acc2a16c
     Pseudo is Projector augmented-wave + core cor, Zval =  5.0
     Generated using "atomic" code by A. Dal Corso  v.5.0.99 svn rev. 10869
     Shape of augmentation charge: PSQ
     Using radial grid of 1209 points,  4 beta functions with: 
                l(1) =   0
                l(2) =   0
                l(3) =   1
                l(4) =   1
     Q(r) pseudized with 0 coefficients 


     atomic species   valence    mass     pseudopotential
        Ga            13.00    69.72300     Ga( 1.00)
        As             5.00    74.92159     As( 1.00)

     24 Sym. Ops. (no inversion) found



   Cartesian axes

     site n.     atom                  positions (alat units)
         1           Ga  tau(   1) = (   0.0000000   0.0000000   0.0000000  )
         2           As  tau(   2) = (   0.2500000   0.2500000   0.2500000  )

     number of k points=   240

     Number of k-points >= 100: set verbosity='high' to print them.

     Dense  grid:    75457 G-vectors     FFT dimensions: (  60,  60,  60)

     Smooth grid:    14361 G-vectors     FFT dimensions: (  36,  36,  36)

     Largest allocated arrays     est. size (Mb)     dimensions
        Kohn-Sham Wavefunctions         0.06 Mb     (     467,    9)
        NL pseudopotentials             0.19 Mb     (     467,   26)
        Each V/rho on FFT grid          0.82 Mb     (   54000)
        Each G-vector array             0.14 Mb     (   18866)
        G-vector shells                 0.00 Mb     (     578)
     Largest temporary arrays     est. size (Mb)     dimensions
        Auxiliary wavefunctions         0.26 Mb     (     467,   36)
        Each subspace H/S matrix        0.02 Mb     (      36,   36)
        Each <psi_i|beta_j> matrix      0.00 Mb     (      26,    9)

     The potential is recalculated from file :
     ./_ph0/GaAs.q_2/GaAs.save/charge-density.dat

     Starting wfc are   13 atomic wfcs
     Checking if some PAW data can be deallocated... 

     Band Structure Calculation
     Davidson diagonalization with overlap

     ethr =  5.56E-11,  avg # of iterations = 11.5

     total cpu time spent up to now is        3.0 secs

     End of band structure calculation

     Number of k-points >= 100: set verbosity='high' to print the bands.

     highest occupied level (ev):     7.6030

     Writing output data file GaAs.save

                                                                                

     bravais-lattice index     =            2
     lattice parameter (alat)  =      10.6867  a.u.
     unit-cell volume          =     305.1201 (a.u.)^3
     number of atoms/cell      =            2
     number of atomic types    =            2
     kinetic-energy cut-off    =      50.0000  Ry
     charge density cut-off    =     600.0000  Ry
     convergence threshold     =      1.0E-14
     beta                      =       0.3000
     number of iterations used =            4
     Exchange-correlation      =  SLA  PW   PBX  PBC ( 1  4  3  4 0 0)


     celldm(1)=   10.68670  celldm(2)=    0.00000  celldm(3)=    0.00000
     celldm(4)=    0.00000  celldm(5)=    0.00000  celldm(6)=    0.00000

     crystal axes: (cart. coord. in units of alat)
               a(1) = ( -0.5000  0.0000  0.5000 )  
               a(2) = (  0.0000  0.5000  0.5000 )  
               a(3) = ( -0.5000  0.5000  0.0000 )  

     reciprocal axes: (cart. coord. in units 2 pi/alat)
               b(1) = ( -1.0000 -1.0000  1.0000 )  
               b(2) = (  1.0000  1.0000  1.0000 )  
               b(3) = ( -1.0000  1.0000 -1.0000 )  


     Atoms inside the unit cell: 

     Cartesian axes

     site n.  atom      mass           positions (alat units)
        1     Ga  69.7230   tau(    1) = (    0.00000    0.00000    0.00000  )
        2     As  74.9216   tau(    2) = (    0.25000    0.25000    0.25000  )

     Computing dynamical matrix for 
                    q = (  -0.2500000   0.2500000  -0.2500000 )
 
      6 Sym.Ops. (no q -> -q+G )


     G cutoff = 1735.7163  (  18866 G-vectors)     FFT grid: ( 60, 60, 60)
     G cutoff =  578.5721  (   3593 G-vectors)  smooth grid: ( 36, 36, 36)
     number of k points=   240

     PseudoPot. # 1 for Ga read from file:
     ./Ga.pbe-dn-kjpaw_psl.0.2.upf
     MD5 check sum: f703b3f64ba021741ea9c16c693bf590
     Pseudo is Projector augmented-wave + core cor, Zval = 13.0
     Generated using "atomic" code by A. Dal Corso  v.5.0.99 svn rev. 10869
     Shape of augmentation charge: BESSEL
     Using radial grid of 1205 points,  6 beta functions with: 
                l(1) =   0
                l(2) =   0
                l(3) =   1
                l(4) =   1
                l(5) =   2
                l(6) =   2
     Q(r) pseudized with 0 coefficients 


     PseudoPot. # 2 for As read from file:
     ./As.pbe-n-kjpaw_psl.0.2.upf
     MD5 check sum: 076d91deeb42e24e5cc35739acc2a16c
     Pseudo is Projector augmented-wave + core cor, Zval =  5.0
     Generated using "atomic" code by A. Dal Corso  v.5.0.99 svn rev. 10869
     Shape of augmentation charge: PSQ
     Using radial grid of 1209 points,  4 beta functions with: 
                l(1) =   0
                l(2) =   0
                l(3) =   1
                l(4) =   1
     Q(r) pseudized with 0 coefficients 


     Mode symmetry, C_3v (3m)   point group:


     Atomic displacements:
     There are   4 irreducible representations

     Representation     1      1 modes -A_1  L_1  To be done

     Representation     2      1 modes -A_1  L_1  To be done

     Representation     3      2 modes -E    L_3  To be done

     Representation     4      2 modes -E    L_3  To be done



     Alpha used in Ewald sum =   2.8000
     PHONON       :  1m13.70s CPU     1m21.07s WALL



     Representation #  1 mode #   1

     Self-consistent Calculation

      iter #   1 total cpu time :    82.2 secs   av.it.:   5.1
      thresh= 1.000E-02 alpha_mix =  0.300 |ddv_scf|^2 =  1.216E-04

      iter #   2 total cpu time :    83.6 secs   av.it.:   8.2
      thresh= 1.103E-03 alpha_mix =  0.300 |ddv_scf|^2 =  1.152E-04

      iter #   3 total cpu time :    84.9 secs   av.it.:   7.7
      thresh= 1.073E-03 alpha_mix =  0.300 |ddv_scf|^2 =  3.207E-08

      iter #   4 total cpu time :    86.7 secs   av.it.:   9.6
      thresh= 1.791E-05 alpha_mix =  0.300 |ddv_scf|^2 =  4.786E-09

      iter #   5 total cpu time :    89.0 secs   av.it.:   9.8
      thresh= 6.918E-06 alpha_mix =  0.300 |ddv_scf|^2 =  6.775E-10

      iter #   6 total cpu time :    91.1 secs   av.it.:  10.3
      thresh= 2.603E-06 alpha_mix =  0.300 |ddv_scf|^2 =  1.930E-11

      iter #   7 total cpu time :    92.6 secs   av.it.:  10.4
      thresh= 4.393E-07 alpha_mix =  0.300 |ddv_scf|^2 =  2.756E-12

      iter #   8 total cpu time :    94.1 secs   av.it.:   9.7
      thresh= 1.660E-07 alpha_mix =  0.300 |ddv_scf|^2 =  1.829E-12

      iter #   9 total cpu time :    96.0 secs   av.it.:   9.6
      thresh= 1.352E-07 alpha_mix =  0.300 |ddv_scf|^2 =  1.526E-13

      iter #  10 total cpu time :    97.9 secs   av.it.:  10.4
      thresh= 3.907E-08 alpha_mix =  0.300 |ddv_scf|^2 =  3.784E-14

      iter #  11 total cpu time :    99.3 secs   av.it.:   9.4
      thresh= 1.945E-08 alpha_mix =  0.300 |ddv_scf|^2 =  9.276E-15

     End of self-consistent calculation

     Convergence has been achieved 


     Representation #  2 mode #   2

     Self-consistent Calculation

      iter #   1 total cpu time :   100.9 secs   av.it.:   7.1
      thresh= 1.000E-02 alpha_mix =  0.300 |ddv_scf|^2 =  7.749E-04

      iter #   2 total cpu time :   102.6 secs   av.it.:   8.6
      thresh= 2.784E-03 alpha_mix =  0.300 |ddv_scf|^2 =  7.173E-04

      iter #   3 total cpu time :   103.9 secs   av.it.:   7.4
      thresh= 2.678E-03 alpha_mix =  0.300 |ddv_scf|^2 =  1.065E-06

      iter #   4 total cpu time :   105.9 secs   av.it.:  10.3
      thresh= 1.032E-04 alpha_mix =  0.300 |ddv_scf|^2 =  4.947E-08

      iter #   5 total cpu time :   107.6 secs   av.it.:  10.3
      thresh= 2.224E-05 alpha_mix =  0.300 |ddv_scf|^2 =  1.098E-08

      iter #   6 total cpu time :   109.2 secs   av.it.:  10.4
      thresh= 1.048E-05 alpha_mix =  0.300 |ddv_scf|^2 =  1.139E-09

      iter #   7 total cpu time :   110.9 secs   av.it.:  10.0
      thresh= 3.375E-06 alpha_mix =  0.300 |ddv_scf|^2 =  3.389E-10

      iter #   8 total cpu time :   112.6 secs   av.it.:   9.0
      thresh= 1.841E-06 alpha_mix =  0.300 |ddv_scf|^2 =  2.636E-11

      iter #   9 total cpu time :   114.2 secs   av.it.:   9.7
      thresh= 5.134E-07 alpha_mix =  0.300 |ddv_scf|^2 =  1.143E-11

      iter #  10 total cpu time :   117.7 secs   av.it.:  10.1
      thresh= 3.381E-07 alpha_mix =  0.300 |ddv_scf|^2 =  3.303E-12

      iter #  11 total cpu time :   120.6 secs   av.it.:   9.7
      thresh= 1.817E-07 alpha_mix =  0.300 |ddv_scf|^2 =  3.265E-13

      iter #  12 total cpu time :   122.7 secs   av.it.:  10.3
      thresh= 5.714E-08 alpha_mix =  0.300 |ddv_scf|^2 =  1.150E-13

      iter #  13 total cpu time :   124.4 secs   av.it.:   9.8
      thresh= 3.391E-08 alpha_mix =  0.300 |ddv_scf|^2 =  2.816E-14

      iter #  14 total cpu time :   126.0 secs   av.it.:   9.9
      thresh= 1.678E-08 alpha_mix =  0.300 |ddv_scf|^2 =  4.632E-15

     End of self-consistent calculation

     Convergence has been achieved 


     Representation #  3 modes #   3  4

     Self-consistent Calculation

      iter #   1 total cpu time :   128.6 secs   av.it.:   4.7
      thresh= 1.000E-02 alpha_mix =  0.300 |ddv_scf|^2 =  2.448E-08

      iter #   2 total cpu time :   132.2 secs   av.it.:  10.5
      thresh= 1.565E-05 alpha_mix =  0.300 |ddv_scf|^2 =  7.418E-09

      iter #   3 total cpu time :   135.2 secs   av.it.:  11.2
      thresh= 8.613E-06 alpha_mix =  0.300 |ddv_scf|^2 =  3.919E-10

      iter #   4 total cpu time :   139.1 secs   av.it.:  11.3
      thresh= 1.980E-06 alpha_mix =  0.300 |ddv_scf|^2 =  7.331E-12

      iter #   5 total cpu time :   142.7 secs   av.it.:  10.7
      thresh= 2.708E-07 alpha_mix =  0.300 |ddv_scf|^2 =  1.965E-12

      iter #   6 total cpu time :   146.2 secs   av.it.:  11.6
      thresh= 1.402E-07 alpha_mix =  0.300 |ddv_scf|^2 =  4.275E-14

      iter #   7 total cpu time :   150.3 secs   av.it.:  11.7
      thresh= 2.068E-08 alpha_mix =  0.300 |ddv_scf|^2 =  1.650E-15

     End of self-consistent calculation

     Convergence has been achieved 


     Representation #  4 modes #   5  6

     Self-consistent Calculation

      iter #   1 total cpu time :   153.2 secs   av.it.:   6.8
      thresh= 1.000E-02 alpha_mix =  0.300 |ddv_scf|^2 =  1.501E-06

      iter #   2 total cpu time :   156.2 secs   av.it.:  11.0
      thresh= 1.225E-04 alpha_mix =  0.300 |ddv_scf|^2 =  3.846E-07

      iter #   3 total cpu time :   159.4 secs   av.it.:  11.9
      thresh= 6.202E-05 alpha_mix =  0.300 |ddv_scf|^2 =  7.869E-09

      iter #   4 total cpu time :   164.2 secs   av.it.:  11.5
      thresh= 8.871E-06 alpha_mix =  0.300 |ddv_scf|^2 =  5.709E-10

      iter #   5 total cpu time :   167.6 secs   av.it.:  10.7
      thresh= 2.389E-06 alpha_mix =  0.300 |ddv_scf|^2 =  4.142E-11

      iter #   6 total cpu time :   170.7 secs   av.it.:  10.9
      thresh= 6.436E-07 alpha_mix =  0.300 |ddv_scf|^2 =  2.441E-12

      iter #   7 total cpu time :   173.8 secs   av.it.:  11.7
      thresh= 1.563E-07 alpha_mix =  0.300 |ddv_scf|^2 =  4.379E-14

      iter #   8 total cpu time :   177.9 secs   av.it.:  10.1
      thresh= 2.092E-08 alpha_mix =  0.300 |ddv_scf|^2 =  2.023E-14

      iter #   9 total cpu time :   180.8 secs   av.it.:  11.2
      thresh= 1.422E-08 alpha_mix =  0.300 |ddv_scf|^2 =  7.215E-16

     End of self-consistent calculation

     Convergence has been achieved 
 
     Number of q in the star =    4
     List of q in the star:
          1  -0.250000000   0.250000000  -0.250000000
          2   0.250000000  -0.250000000  -0.250000000
          3  -0.250000000  -0.250000000   0.250000000
          4   0.250000000   0.250000000   0.250000000
     In addition there is the -q list: 
          1   0.250000000  -0.250000000   0.250000000
          2  -0.250000000   0.250000000   0.250000000
          3   0.250000000   0.250000000  -0.250000000
          4  -0.250000000  -0.250000000  -0.250000000

     Diagonalizing the dynamical matrix

     q = (   -0.250000000   0.250000000  -0.250000000 ) 

 **************************************************************************
     freq (    1) =       1.422505 [THz] =      47.449665 [cm-1]
     freq (    2) =       1.422505 [THz] =      47.449665 [cm-1]
     freq (    3) =       3.863171 [THz] =     128.861505 [cm-1]
     freq (    4) =       7.900024 [THz] =     263.516423 [cm-1]
     freq (    5) =       7.900024 [THz] =     263.516423 [cm-1]
     freq (    6) =       8.197698 [THz] =     273.445763 [cm-1]
 **************************************************************************

     Mode symmetry, C_3v (3m)   point group:

     freq (  1 -  2) =         47.4  [cm-1]   --> E    L_3           
     freq (  3 -  3) =        128.9  [cm-1]   --> A_1  L_1           
     freq (  4 -  5) =        263.5  [cm-1]   --> E    L_3           
     freq (  6 -  6) =        273.4  [cm-1]   --> A_1  L_1           

     Calculation of q =    0.5000000  -0.5000000   0.5000000
 
     Parallelization info
     --------------------
     sticks:   dense  smooth     PW     G-vecs:    dense   smooth      PW
     Min         586     192     66                18861     3584     722
     Max         587     193     67                18866     3603     724
     Sum        2347     769    265                75457    14361    2891
 


     bravais-lattice index     =            2
     lattice parameter (alat)  =      10.6867  a.u.
     unit-cell volume          =     305.1201 (a.u.)^3
     number of atoms/cell      =            2
     number of atomic types    =            2
     number of electrons       =        18.00
     number of Kohn-Sham states=            9
     kinetic-energy cutoff     =      50.0000  Ry
     charge density cutoff     =     600.0000  Ry
     Exchange-correlation      =  SLA  PW   PBX  PBC ( 1  4  3  4 0 0)

     celldm(1)=  10.686700  celldm(2)=   0.000000  celldm(3)=   0.000000
     celldm(4)=   0.000000  celldm(5)=   0.000000  celldm(6)=   0.000000

     crystal axes: (cart. coord. in units of alat)
               a(1) = (  -0.500000   0.000000   0.500000 )  
               a(2) = (   0.000000   0.500000   0.500000 )  
               a(3) = (  -0.500000   0.500000   0.000000 )  

     reciprocal axes: (cart. coord. in units 2 pi/alat)
               b(1) = ( -1.000000 -1.000000  1.000000 )  
               b(2) = (  1.000000  1.000000  1.000000 )  
               b(3) = ( -1.000000  1.000000 -1.000000 )  


     PseudoPot. # 1 for Ga read from file:
     ./Ga.pbe-dn-kjpaw_psl.0.2.upf
     MD5 check sum: f703b3f64ba021741ea9c16c693bf590
     Pseudo is Projector augmented-wave + core cor, Zval = 13.0
     Generated using "atomic" code by A. Dal Corso  v.5.0.99 svn rev. 10869
     Shape of augmentation charge: BESSEL
     Using radial grid of 1205 points,  6 beta functions with: 
                l(1) =   0
                l(2) =   0
                l(3) =   1
                l(4) =   1
                l(5) =   2
                l(6) =   2
     Q(r) pseudized with 0 coefficients 


     PseudoPot. # 2 for As read from file:
     ./As.pbe-n-kjpaw_psl.0.2.upf
     MD5 check sum: 076d91deeb42e24e5cc35739acc2a16c
     Pseudo is Projector augmented-wave + core cor, Zval =  5.0
     Generated using "atomic" code by A. Dal Corso  v.5.0.99 svn rev. 10869
     Shape of augmentation charge: PSQ
     Using radial grid of 1209 points,  4 beta functions with: 
                l(1) =   0
                l(2) =   0
                l(3) =   1
                l(4) =   1
     Q(r) pseudized with 0 coefficients 


     atomic species   valence    mass     pseudopotential
        Ga            13.00    69.72300     Ga( 1.00)
        As             5.00    74.92159     As( 1.00)

     24 Sym. Ops. (no inversion) found



   Cartesian axes

     site n.     atom                  positions (alat units)
         1           Ga  tau(   1) = (   0.0000000   0.0000000   0.0000000  )
         2           As  tau(   2) = (   0.2500000   0.2500000   0.2500000  )

     number of k points=   130

     Number of k-points >= 100: set verbosity='high' to print them.

     Dense  grid:    75457 G-vectors     FFT dimensions: (  60,  60,  60)

     Smooth grid:    14361 G-vectors     FFT dimensions: (  36,  36,  36)

     Largest allocated arrays     est. size (Mb)     dimensions
        Kohn-Sham Wavefunctions         0.07 Mb     (     476,    9)
        NL pseudopotentials             0.19 Mb     (     476,   26)
        Each V/rho on FFT grid          0.82 Mb     (   54000)
        Each G-vector array             0.14 Mb     (   18866)
        G-vector shells                 0.00 Mb     (     581)
     Largest temporary arrays     est. size (Mb)     dimensions
        Auxiliary wavefunctions         0.26 Mb     (     476,   36)
        Each subspace H/S matrix        0.02 Mb     (      36,   36)
        Each <psi_i|beta_j> matrix      0.00 Mb     (      26,    9)

     The potential is recalculated from file :
     ./_ph0/GaAs.q_3/GaAs.save/charge-density.dat

     Starting wfc are   13 atomic wfcs
     Checking if some PAW data can be deallocated... 

     Band Structure Calculation
     Davidson diagonalization with overlap

     ethr =  5.56E-11,  avg # of iterations = 11.5

     total cpu time spent up to now is        5.6 secs

     End of band structure calculation

     Number of k-points >= 100: set verbosity='high' to print the bands.

     highest occupied level (ev):     7.6030

     Writing output data file GaAs.save

                                                                                

     bravais-lattice index     =            2
     lattice parameter (alat)  =      10.6867  a.u.
     unit-cell volume          =     305.1201 (a.u.)^3
     number of atoms/cell      =            2
     number of atomic types    =            2
     kinetic-energy cut-off    =      50.0000  Ry
     charge density cut-off    =     600.0000  Ry
     convergence threshold     =      1.0E-14
     beta                      =       0.3000
     number of iterations used =            4
     Exchange-correlation      =  SLA  PW   PBX  PBC ( 1  4  3  4 0 0)


     celldm(1)=   10.68670  celldm(2)=    0.00000  celldm(3)=    0.00000
     celldm(4)=    0.00000  celldm(5)=    0.00000  celldm(6)=    0.00000

     crystal axes: (cart. coord. in units of alat)
               a(1) = ( -0.5000  0.0000  0.5000 )  
               a(2) = (  0.0000  0.5000  0.5000 )  
               a(3) = ( -0.5000  0.5000  0.0000 )  

     reciprocal axes: (cart. coord. in units 2 pi/alat)
               b(1) = ( -1.0000 -1.0000  1.0000 )  
               b(2) = (  1.0000  1.0000  1.0000 )  
               b(3) = ( -1.0000  1.0000 -1.0000 )  


     Atoms inside the unit cell: 

     Cartesian axes

     site n.  atom      mass           positions (alat units)
        1     Ga  69.7230   tau(    1) = (    0.00000    0.00000    0.00000  )
        2     As  74.9216   tau(    2) = (    0.25000    0.25000    0.25000  )

     Computing dynamical matrix for 
                    q = (   0.5000000  -0.5000000   0.5000000 )
 
      7 Sym.Ops. (with q -> -q+G )


     G cutoff = 1735.7163  (  18866 G-vectors)     FFT grid: ( 60, 60, 60)
     G cutoff =  578.5721  (   3585 G-vectors)  smooth grid: ( 36, 36, 36)
     number of k points=   130

     PseudoPot. # 1 for Ga read from file:
     ./Ga.pbe-dn-kjpaw_psl.0.2.upf
     MD5 check sum: f703b3f64ba021741ea9c16c693bf590
     Pseudo is Projector augmented-wave + core cor, Zval = 13.0
     Generated using "atomic" code by A. Dal Corso  v.5.0.99 svn rev. 10869
     Shape of augmentation charge: BESSEL
     Using radial grid of 1205 points,  6 beta functions with: 
                l(1) =   0
                l(2) =   0
                l(3) =   1
                l(4) =   1
                l(5) =   2
                l(6) =   2
     Q(r) pseudized with 0 coefficients 


     PseudoPot. # 2 for As read from file:
     ./As.pbe-n-kjpaw_psl.0.2.upf
     MD5 check sum: 076d91deeb42e24e5cc35739acc2a16c
     Pseudo is Projector augmented-wave + core cor, Zval =  5.0
     Generated using "atomic" code by A. Dal Corso  v.5.0.99 svn rev. 10869
     Shape of augmentation charge: PSQ
     Using radial grid of 1209 points,  4 beta functions with: 
                l(1) =   0
                l(2) =   0
                l(3) =   1
                l(4) =   1
     Q(r) pseudized with 0 coefficients 


     Mode symmetry, C_3v (3m)   point group:


     Atomic displacements:
     There are   4 irreducible representations

     Representation     1      1 modes -A_1  L_1  To be done

     Representation     2      1 modes -A_1  L_1  To be done

     Representation     3      2 modes -E    L_3  To be done

     Representation     4      2 modes -E    L_3  To be done



     Alpha used in Ewald sum =   2.8000
     PHONON       :  2m53.67s CPU     3m 9.89s WALL



     Representation #  1 mode #   1

     Self-consistent Calculation

      iter #   1 total cpu time :   190.9 secs   av.it.:   5.0
      thresh= 1.000E-02 alpha_mix =  0.300 |ddv_scf|^2 =  9.516E-06

      iter #   2 total cpu time :   192.1 secs   av.it.:   9.1
      thresh= 3.085E-04 alpha_mix =  0.300 |ddv_scf|^2 =  1.404E-07

      iter #   3 total cpu time :   193.1 secs   av.it.:   9.7
      thresh= 3.748E-05 alpha_mix =  0.300 |ddv_scf|^2 =  8.450E-09

      iter #   4 total cpu time :   194.2 secs   av.it.:   9.9
      thresh= 9.192E-06 alpha_mix =  0.300 |ddv_scf|^2 =  1.932E-09

      iter #   5 total cpu time :   195.3 secs   av.it.:  10.0
      thresh= 4.395E-06 alpha_mix =  0.300 |ddv_scf|^2 =  6.305E-11

      iter #   6 total cpu time :   196.8 secs   av.it.:  10.4
      thresh= 7.941E-07 alpha_mix =  0.300 |ddv_scf|^2 =  8.046E-12

      iter #   7 total cpu time :   198.1 secs   av.it.:  10.2
      thresh= 2.837E-07 alpha_mix =  0.300 |ddv_scf|^2 =  7.250E-13

      iter #   8 total cpu time :   199.2 secs   av.it.:  10.2
      thresh= 8.515E-08 alpha_mix =  0.300 |ddv_scf|^2 =  2.121E-13

      iter #   9 total cpu time :   200.2 secs   av.it.:  10.2
      thresh= 4.605E-08 alpha_mix =  0.300 |ddv_scf|^2 =  8.421E-15

     End of self-consistent calculation

     Convergence has been achieved 


     Representation #  2 mode #   2

     Self-consistent Calculation

      iter #   1 total cpu time :   201.3 secs   av.it.:   7.1
      thresh= 1.000E-02 alpha_mix =  0.300 |ddv_scf|^2 =  8.809E-05

      iter #   2 total cpu time :   202.4 secs   av.it.:   9.1
      thresh= 9.385E-04 alpha_mix =  0.300 |ddv_scf|^2 =  2.771E-06

      iter #   3 total cpu time :   203.5 secs   av.it.:   9.5
      thresh= 1.665E-04 alpha_mix =  0.300 |ddv_scf|^2 =  4.043E-07

      iter #   4 total cpu time :   204.6 secs   av.it.:  10.3
      thresh= 6.359E-05 alpha_mix =  0.300 |ddv_scf|^2 =  3.970E-08

      iter #   5 total cpu time :   205.8 secs   av.it.:  10.7
      thresh= 1.992E-05 alpha_mix =  0.300 |ddv_scf|^2 =  4.307E-09

      iter #   6 total cpu time :   207.0 secs   av.it.:  10.0
      thresh= 6.563E-06 alpha_mix =  0.300 |ddv_scf|^2 =  3.400E-10

      iter #   7 total cpu time :   208.1 secs   av.it.:   9.8
      thresh= 1.844E-06 alpha_mix =  0.300 |ddv_scf|^2 =  7.576E-11

      iter #   8 total cpu time :   209.5 secs   av.it.:   9.9
      thresh= 8.704E-07 alpha_mix =  0.300 |ddv_scf|^2 =  4.001E-12

      iter #   9 total cpu time :   211.4 secs   av.it.:  10.6
      thresh= 2.000E-07 alpha_mix =  0.300 |ddv_scf|^2 =  3.722E-13

      iter #  10 total cpu time :   212.6 secs   av.it.:   9.8
      thresh= 6.101E-08 alpha_mix =  0.300 |ddv_scf|^2 =  1.143E-13

      iter #  11 total cpu time :   213.7 secs   av.it.:  10.5
      thresh= 3.380E-08 alpha_mix =  0.300 |ddv_scf|^2 =  8.610E-15

     End of self-consistent calculation

     Convergence has been achieved 


     Representation #  3 modes #   3  4

     Self-consistent Calculation

      iter #   1 total cpu time :   215.5 secs   av.it.:   4.7
      thresh= 1.000E-02 alpha_mix =  0.300 |ddv_scf|^2 =  2.980E-08

      iter #   2 total cpu time :   217.5 secs   av.it.:  10.5
      thresh= 1.726E-05 alpha_mix =  0.300 |ddv_scf|^2 =  8.311E-09

      iter #   3 total cpu time :   219.9 secs   av.it.:  11.1
      thresh= 9.117E-06 alpha_mix =  0.300 |ddv_scf|^2 =  4.510E-10

      iter #   4 total cpu time :   222.1 secs   av.it.:  11.2
      thresh= 2.124E-06 alpha_mix =  0.300 |ddv_scf|^2 =  8.445E-12

      iter #   5 total cpu time :   224.2 secs   av.it.:  10.8
      thresh= 2.906E-07 alpha_mix =  0.300 |ddv_scf|^2 =  1.971E-12

      iter #   6 total cpu time :   226.4 secs   av.it.:  11.5
      thresh= 1.404E-07 alpha_mix =  0.300 |ddv_scf|^2 =  5.848E-14

      iter #   7 total cpu time :   228.7 secs   av.it.:  11.6
      thresh= 2.418E-08 alpha_mix =  0.300 |ddv_scf|^2 =  2.003E-15

     End of self-consistent calculation

     Convergence has been achieved 


     Representation #  4 modes #   5  6

     Self-consistent Calculation

      iter #   1 total cpu time :   230.8 secs   av.it.:   6.8
      thresh= 1.000E-02 alpha_mix =  0.300 |ddv_scf|^2 =  1.636E-06

      iter #   2 total cpu time :   233.5 secs   av.it.:  10.8
      thresh= 1.279E-04 alpha_mix =  0.300 |ddv_scf|^2 =  3.939E-07

      iter #   3 total cpu time :   235.7 secs   av.it.:  11.8
      thresh= 6.276E-05 alpha_mix =  0.300 |ddv_scf|^2 =  8.994E-09

      iter #   4 total cpu time :   237.9 secs   av.it.:  11.5
      thresh= 9.484E-06 alpha_mix =  0.300 |ddv_scf|^2 =  6.789E-10

      iter #   5 total cpu time :   240.4 secs   av.it.:  10.7
      thresh= 2.606E-06 alpha_mix =  0.300 |ddv_scf|^2 =  4.710E-11

      iter #   6 total cpu time :   242.5 secs   av.it.:  10.6
      thresh= 6.863E-07 alpha_mix =  0.300 |ddv_scf|^2 =  3.254E-12

      iter #   7 total cpu time :   244.6 secs   av.it.:  11.5
      thresh= 1.804E-07 alpha_mix =  0.300 |ddv_scf|^2 =  6.387E-14

      iter #   8 total cpu time :   246.9 secs   av.it.:  10.2
      thresh= 2.527E-08 alpha_mix =  0.300 |ddv_scf|^2 =  2.810E-14

      iter #   9 total cpu time :   249.0 secs   av.it.:  11.1
      thresh= 1.676E-08 alpha_mix =  0.300 |ddv_scf|^2 =  1.428E-15

     End of self-consistent calculation

     Convergence has been achieved 
 
     Number of q in the star =    4
     List of q in the star:
          1   0.500000000  -0.500000000   0.500000000
          2  -0.500000000   0.500000000   0.500000000
          3   0.500000000   0.500000000  -0.500000000
          4  -0.500000000  -0.500000000  -0.500000000

     Diagonalizing the dynamical matrix

     q = (    0.500000000  -0.500000000   0.500000000 ) 

 **************************************************************************
     freq (    1) =       1.712796 [THz] =      57.132722 [cm-1]
     freq (    2) =       1.712796 [THz] =      57.132722 [cm-1]
     freq (    3) =       6.157515 [THz] =     205.392576 [cm-1]
     freq (    4) =       7.205997 [THz] =     240.366192 [cm-1]
     freq (    5) =       7.886563 [THz] =     263.067440 [cm-1]
     freq (    6) =       7.886563 [THz] =     263.067440 [cm-1]
 **************************************************************************

     Mode symmetry, C_3v (3m)   point group:

     freq (  1 -  2) =         57.1  [cm-1]   --> E    L_3           
     freq (  3 -  3) =        205.4  [cm-1]   --> A_1  L_1           
     freq (  4 -  4) =        240.4  [cm-1]   --> A_1  L_1           
     freq (  5 -  6) =        263.1  [cm-1]   --> E    L_3           

     Calculation of q =    0.0000000   0.5000000   0.0000000
 
     Parallelization info
     --------------------
     sticks:   dense  smooth     PW     G-vecs:    dense   smooth      PW
     Min         586     192     63                18861     3583     682
     Max         587     193     64                18866     3596     686
     Sum        2347     769    253                75457    14361    2733
 


     bravais-lattice index     =            2
     lattice parameter (alat)  =      10.6867  a.u.
     unit-cell volume          =     305.1201 (a.u.)^3
     number of atoms/cell      =            2
     number of atomic types    =            2
     number of electrons       =        18.00
     number of Kohn-Sham states=            9
     kinetic-energy cutoff     =      50.0000  Ry
     charge density cutoff     =     600.0000  Ry
     Exchange-correlation      =  SLA  PW   PBX  PBC ( 1  4  3  4 0 0)

     celldm(1)=  10.686700  celldm(2)=   0.000000  celldm(3)=   0.000000
     celldm(4)=   0.000000  celldm(5)=   0.000000  celldm(6)=   0.000000

     crystal axes: (cart. coord. in units of alat)
               a(1) = (  -0.500000   0.000000   0.500000 )  
               a(2) = (   0.000000   0.500000   0.500000 )  
               a(3) = (  -0.500000   0.500000   0.000000 )  

     reciprocal axes: (cart. coord. in units 2 pi/alat)
               b(1) = ( -1.000000 -1.000000  1.000000 )  
               b(2) = (  1.000000  1.000000  1.000000 )  
               b(3) = ( -1.000000  1.000000 -1.000000 )  


     PseudoPot. # 1 for Ga read from file:
     ./Ga.pbe-dn-kjpaw_psl.0.2.upf
     MD5 check sum: f703b3f64ba021741ea9c16c693bf590
     Pseudo is Projector augmented-wave + core cor, Zval = 13.0
     Generated using "atomic" code by A. Dal Corso  v.5.0.99 svn rev. 10869
     Shape of augmentation charge: BESSEL
     Using radial grid of 1205 points,  6 beta functions with: 
                l(1) =   0
                l(2) =   0
                l(3) =   1
                l(4) =   1
                l(5) =   2
                l(6) =   2
     Q(r) pseudized with 0 coefficients 


     PseudoPot. # 2 for As read from file:
     ./As.pbe-n-kjpaw_psl.0.2.upf
     MD5 check sum: 076d91deeb42e24e5cc35739acc2a16c
     Pseudo is Projector augmented-wave + core cor, Zval =  5.0
     Generated using "atomic" code by A. Dal Corso  v.5.0.99 svn rev. 10869
     Shape of augmentation charge: PSQ
     Using radial grid of 1209 points,  4 beta functions with: 
                l(1) =   0
                l(2) =   0
                l(3) =   1
                l(4) =   1
     Q(r) pseudized with 0 coefficients 


     atomic species   valence    mass     pseudopotential
        Ga            13.00    69.72300     Ga( 1.00)
        As             5.00    74.92159     As( 1.00)

     24 Sym. Ops. (no inversion) found



   Cartesian axes

     site n.     atom                  positions (alat units)
         1           Ga  tau(   1) = (   0.0000000   0.0000000   0.0000000  )
         2           As  tau(   2) = (   0.2500000   0.2500000   0.2500000  )

     number of k points=   328

     Number of k-points >= 100: set verbosity='high' to print them.

     Dense  grid:    75457 G-vectors     FFT dimensions: (  60,  60,  60)

     Smooth grid:    14361 G-vectors     FFT dimensions: (  36,  36,  36)

     Largest allocated arrays     est. size (Mb)     dimensions
        Kohn-Sham Wavefunctions         0.06 Mb     (     470,    9)
        NL pseudopotentials             0.19 Mb     (     470,   26)
        Each V/rho on FFT grid          0.82 Mb     (   54000)
        Each G-vector array             0.14 Mb     (   18866)
        G-vector shells                 0.00 Mb     (     581)
     Largest temporary arrays     est. size (Mb)     dimensions
        Auxiliary wavefunctions         0.26 Mb     (     470,   36)
        Each subspace H/S matrix        0.02 Mb     (      36,   36)
        Each <psi_i|beta_j> matrix      0.00 Mb     (      26,    9)

     The potential is recalculated from file :
     ./_ph0/GaAs.q_4/GaAs.save/charge-density.dat

     Starting wfc are   13 atomic wfcs
     Checking if some PAW data can be deallocated... 

     Band Structure Calculation
     Davidson diagonalization with overlap

     ethr =  5.56E-11,  avg # of iterations = 11.5

     total cpu time spent up to now is        9.6 secs

     End of band structure calculation

     Number of k-points >= 100: set verbosity='high' to print the bands.

     highest occupied level (ev):     7.6030

     Writing output data file GaAs.save

                                                                                

     bravais-lattice index     =            2
     lattice parameter (alat)  =      10.6867  a.u.
     unit-cell volume          =     305.1201 (a.u.)^3
     number of atoms/cell      =            2
     number of atomic types    =            2
     kinetic-energy cut-off    =      50.0000  Ry
     charge density cut-off    =     600.0000  Ry
     convergence threshold     =      1.0E-14
     beta                      =       0.3000
     number of iterations used =            4
     Exchange-correlation      =  SLA  PW   PBX  PBC ( 1  4  3  4 0 0)


     celldm(1)=   10.68670  celldm(2)=    0.00000  celldm(3)=    0.00000
     celldm(4)=    0.00000  celldm(5)=    0.00000  celldm(6)=    0.00000

     crystal axes: (cart. coord. in units of alat)
               a(1) = ( -0.5000  0.0000  0.5000 )  
               a(2) = (  0.0000  0.5000  0.5000 )  
               a(3) = ( -0.5000  0.5000  0.0000 )  

     reciprocal axes: (cart. coord. in units 2 pi/alat)
               b(1) = ( -1.0000 -1.0000  1.0000 )  
               b(2) = (  1.0000  1.0000  1.0000 )  
               b(3) = ( -1.0000  1.0000 -1.0000 )  


     Atoms inside the unit cell: 

     Cartesian axes

     site n.  atom      mass           positions (alat units)
        1     Ga  69.7230   tau(    1) = (    0.00000    0.00000    0.00000  )
        2     As  74.9216   tau(    2) = (    0.25000    0.25000    0.25000  )

     Computing dynamical matrix for 
                    q = (   0.0000000   0.5000000   0.0000000 )
 
      4 Sym.Ops. (no q -> -q+G )


     G cutoff = 1735.7163  (  18866 G-vectors)     FFT grid: ( 60, 60, 60)
     G cutoff =  578.5721  (   3592 G-vectors)  smooth grid: ( 36, 36, 36)
     number of k points=   328

     PseudoPot. # 1 for Ga read from file:
     ./Ga.pbe-dn-kjpaw_psl.0.2.upf
     MD5 check sum: f703b3f64ba021741ea9c16c693bf590
     Pseudo is Projector augmented-wave + core cor, Zval = 13.0
     Generated using "atomic" code by A. Dal Corso  v.5.0.99 svn rev. 10869
     Shape of augmentation charge: BESSEL
     Using radial grid of 1205 points,  6 beta functions with: 
                l(1) =   0
                l(2) =   0
                l(3) =   1
                l(4) =   1
                l(5) =   2
                l(6) =   2
     Q(r) pseudized with 0 coefficients 


     PseudoPot. # 2 for As read from file:
     ./As.pbe-n-kjpaw_psl.0.2.upf
     MD5 check sum: 076d91deeb42e24e5cc35739acc2a16c
     Pseudo is Projector augmented-wave + core cor, Zval =  5.0
     Generated using "atomic" code by A. Dal Corso  v.5.0.99 svn rev. 10869
     Shape of augmentation charge: PSQ
     Using radial grid of 1209 points,  4 beta functions with: 
                l(1) =   0
                l(2) =   0
                l(3) =   1
                l(4) =   1
     Q(r) pseudized with 0 coefficients 


     Mode symmetry, C_2v (mm2)  point group:


     Atomic displacements:
     There are   6 irreducible representations

     Representation     1      1 modes -A_1  D_1  S_1  To be done

     Representation     2      1 modes -A_1  D_1  S_1  To be done

     Representation     3      1 modes -B_1  D_3  S_3  To be done

     Representation     4      1 modes -B_1  D_3  S_3  To be done

     Representation     5      1 modes -B_2  D_4  S_4  To be done

     Representation     6      1 modes -B_2  D_4  S_4  To be done



     Alpha used in Ewald sum =   2.8000
     PHONON       :  3m57.95s CPU     4m19.17s WALL



     Representation #  1 mode #   1

     Self-consistent Calculation

      iter #   1 total cpu time :   260.5 secs   av.it.:   5.1
      thresh= 1.000E-02 alpha_mix =  0.300 |ddv_scf|^2 =  7.625E-05

      iter #   2 total cpu time :   262.4 secs   av.it.:   8.2
      thresh= 8.732E-04 alpha_mix =  0.300 |ddv_scf|^2 =  6.036E-05

      iter #   3 total cpu time :   263.9 secs   av.it.:   7.9
      thresh= 7.769E-04 alpha_mix =  0.300 |ddv_scf|^2 =  1.762E-08

      iter #   4 total cpu time :   265.9 secs   av.it.:  10.1
      thresh= 1.327E-05 alpha_mix =  0.300 |ddv_scf|^2 =  3.310E-09

      iter #   5 total cpu time :   267.7 secs   av.it.:  10.1
      thresh= 5.753E-06 alpha_mix =  0.300 |ddv_scf|^2 =  6.079E-10

      iter #   6 total cpu time :   269.6 secs   av.it.:  10.2
      thresh= 2.465E-06 alpha_mix =  0.300 |ddv_scf|^2 =  2.208E-11

      iter #   7 total cpu time :   271.6 secs   av.it.:  10.6
      thresh= 4.698E-07 alpha_mix =  0.300 |ddv_scf|^2 =  1.663E-12

      iter #   8 total cpu time :   273.6 secs   av.it.:  10.6
      thresh= 1.289E-07 alpha_mix =  0.300 |ddv_scf|^2 =  1.575E-13

      iter #   9 total cpu time :   275.4 secs   av.it.:  10.1
      thresh= 3.968E-08 alpha_mix =  0.300 |ddv_scf|^2 =  3.635E-14

      iter #  10 total cpu time :   277.4 secs   av.it.:  10.3
      thresh= 1.906E-08 alpha_mix =  0.300 |ddv_scf|^2 =  1.322E-14

      iter #  11 total cpu time :   279.1 secs   av.it.:   9.2
      thresh= 1.150E-08 alpha_mix =  0.300 |ddv_scf|^2 =  1.209E-15

     End of self-consistent calculation

     Convergence has been achieved 


     Representation #  2 mode #   2

     Self-consistent Calculation

      iter #   1 total cpu time :   281.1 secs   av.it.:   7.2
      thresh= 1.000E-02 alpha_mix =  0.300 |ddv_scf|^2 =  4.615E-04

      iter #   2 total cpu time :   282.9 secs   av.it.:   8.7
      thresh= 2.148E-03 alpha_mix =  0.300 |ddv_scf|^2 =  3.318E-04

      iter #   3 total cpu time :   284.7 secs   av.it.:   7.7
      thresh= 1.821E-03 alpha_mix =  0.300 |ddv_scf|^2 =  1.203E-06

      iter #   4 total cpu time :   286.6 secs   av.it.:  10.3
      thresh= 1.097E-04 alpha_mix =  0.300 |ddv_scf|^2 =  2.970E-08

      iter #   5 total cpu time :   288.7 secs   av.it.:  10.3
      thresh= 1.723E-05 alpha_mix =  0.300 |ddv_scf|^2 =  8.860E-09

      iter #   6 total cpu time :   290.6 secs   av.it.:  10.3
      thresh= 9.413E-06 alpha_mix =  0.300 |ddv_scf|^2 =  5.148E-10

      iter #   7 total cpu time :   292.7 secs   av.it.:  10.2
      thresh= 2.269E-06 alpha_mix =  0.300 |ddv_scf|^2 =  5.182E-11

      iter #   8 total cpu time :   294.7 secs   av.it.:  10.5
      thresh= 7.199E-07 alpha_mix =  0.300 |ddv_scf|^2 =  3.680E-12

      iter #   9 total cpu time :   296.8 secs   av.it.:   9.5
      thresh= 1.918E-07 alpha_mix =  0.300 |ddv_scf|^2 =  7.742E-13

      iter #  10 total cpu time :   298.7 secs   av.it.:   9.5
      thresh= 8.799E-08 alpha_mix =  0.300 |ddv_scf|^2 =  1.524E-13

      iter #  11 total cpu time :   300.6 secs   av.it.:  10.4
      thresh= 3.904E-08 alpha_mix =  0.300 |ddv_scf|^2 =  2.205E-14

      iter #  12 total cpu time :   302.4 secs   av.it.:   8.9
      thresh= 1.485E-08 alpha_mix =  0.300 |ddv_scf|^2 =  5.496E-15

     End of self-consistent calculation

     Convergence has been achieved 


     Representation #  3 mode #   3

     Self-consistent Calculation

      iter #   1 total cpu time :   304.2 secs   av.it.:   6.8
      thresh= 1.000E-02 alpha_mix =  0.300 |ddv_scf|^2 =  7.867E-06

      iter #   2 total cpu time :   306.1 secs   av.it.:   9.7
      thresh= 2.805E-04 alpha_mix =  0.300 |ddv_scf|^2 =  1.646E-06

      iter #   3 total cpu time :   308.1 secs   av.it.:  10.4
      thresh= 1.283E-04 alpha_mix =  0.300 |ddv_scf|^2 =  5.478E-08

      iter #   4 total cpu time :   310.3 secs   av.it.:  10.6
      thresh= 2.340E-05 alpha_mix =  0.300 |ddv_scf|^2 =  3.229E-09

      iter #   5 total cpu time :   312.7 secs   av.it.:   9.2
      thresh= 5.683E-06 alpha_mix =  0.300 |ddv_scf|^2 =  2.408E-10

      iter #   6 total cpu time :   314.5 secs   av.it.:   9.5
      thresh= 1.552E-06 alpha_mix =  0.300 |ddv_scf|^2 =  9.093E-12

      iter #   7 total cpu time :   316.7 secs   av.it.:  10.5
      thresh= 3.016E-07 alpha_mix =  0.300 |ddv_scf|^2 =  1.463E-13

      iter #   8 total cpu time :   318.5 secs   av.it.:   8.9
      thresh= 3.824E-08 alpha_mix =  0.300 |ddv_scf|^2 =  5.967E-14

      iter #   9 total cpu time :   320.4 secs   av.it.:  10.2
      thresh= 2.443E-08 alpha_mix =  0.300 |ddv_scf|^2 =  1.398E-15

     End of self-consistent calculation

     Convergence has been achieved 


     Representation #  4 mode #   4

     Self-consistent Calculation

      iter #   1 total cpu time :   322.4 secs   av.it.:   4.9
      thresh= 1.000E-02 alpha_mix =  0.300 |ddv_scf|^2 =  1.815E-07

      iter #   2 total cpu time :   325.0 secs   av.it.:   9.1
      thresh= 4.261E-05 alpha_mix =  0.300 |ddv_scf|^2 =  4.205E-08

      iter #   3 total cpu time :   326.9 secs   av.it.:  10.3
      thresh= 2.051E-05 alpha_mix =  0.300 |ddv_scf|^2 =  2.282E-09

      iter #   4 total cpu time :   329.3 secs   av.it.:  10.4
      thresh= 4.777E-06 alpha_mix =  0.300 |ddv_scf|^2 =  4.093E-11

      iter #   5 total cpu time :   331.4 secs   av.it.:   9.8
      thresh= 6.398E-07 alpha_mix =  0.300 |ddv_scf|^2 =  8.883E-12

      iter #   6 total cpu time :   333.5 secs   av.it.:  10.6
      thresh= 2.980E-07 alpha_mix =  0.300 |ddv_scf|^2 =  4.285E-13

      iter #   7 total cpu time :   335.7 secs   av.it.:  10.7
      thresh= 6.546E-08 alpha_mix =  0.300 |ddv_scf|^2 =  6.463E-15

     End of self-consistent calculation

     Convergence has been achieved 


     Representation #  5 mode #   5

     Self-consistent Calculation

      iter #   1 total cpu time :   337.6 secs   av.it.:   4.9
      thresh= 1.000E-02 alpha_mix =  0.300 |ddv_scf|^2 =  1.815E-07

      iter #   2 total cpu time :   339.3 secs   av.it.:   9.1
      thresh= 4.261E-05 alpha_mix =  0.300 |ddv_scf|^2 =  4.205E-08

      iter #   3 total cpu time :   341.1 secs   av.it.:  10.3
      thresh= 2.051E-05 alpha_mix =  0.300 |ddv_scf|^2 =  2.282E-09

      iter #   4 total cpu time :   343.0 secs   av.it.:  10.4
      thresh= 4.777E-06 alpha_mix =  0.300 |ddv_scf|^2 =  4.094E-11

      iter #   5 total cpu time :   345.0 secs   av.it.:   9.8
      thresh= 6.398E-07 alpha_mix =  0.300 |ddv_scf|^2 =  8.884E-12

      iter #   6 total cpu time :   347.0 secs   av.it.:  10.6
      thresh= 2.981E-07 alpha_mix =  0.300 |ddv_scf|^2 =  4.286E-13

      iter #   7 total cpu time :   348.9 secs   av.it.:  10.7
      thresh= 6.547E-08 alpha_mix =  0.300 |ddv_scf|^2 =  6.463E-15

     End of self-consistent calculation

     Convergence has been achieved 


     Representation #  6 mode #   6

     Self-consistent Calculation

      iter #   1 total cpu time :   350.9 secs   av.it.:   6.8
      thresh= 1.000E-02 alpha_mix =  0.300 |ddv_scf|^2 =  7.867E-06

      iter #   2 total cpu time :   352.8 secs   av.it.:   9.7
      thresh= 2.805E-04 alpha_mix =  0.300 |ddv_scf|^2 =  1.646E-06

      iter #   3 total cpu time :   354.7 secs   av.it.:  10.4
      thresh= 1.283E-04 alpha_mix =  0.300 |ddv_scf|^2 =  5.482E-08

      iter #   4 total cpu time :   357.0 secs   av.it.:  10.6
      thresh= 2.341E-05 alpha_mix =  0.300 |ddv_scf|^2 =  3.233E-09

      iter #   5 total cpu time :   358.9 secs   av.it.:   9.2
      thresh= 5.686E-06 alpha_mix =  0.300 |ddv_scf|^2 =  2.407E-10

      iter #   6 total cpu time :   361.1 secs   av.it.:   9.5
      thresh= 1.551E-06 alpha_mix =  0.300 |ddv_scf|^2 =  9.094E-12

      iter #   7 total cpu time :   363.8 secs   av.it.:  10.5
      thresh= 3.016E-07 alpha_mix =  0.300 |ddv_scf|^2 =  1.463E-13

      iter #   8 total cpu time :   365.5 secs   av.it.:   8.9
      thresh= 3.825E-08 alpha_mix =  0.300 |ddv_scf|^2 =  5.968E-14

      iter #   9 total cpu time :   367.5 secs   av.it.:  10.2
      thresh= 2.443E-08 alpha_mix =  0.300 |ddv_scf|^2 =  1.400E-15

     End of self-consistent calculation

     Convergence has been achieved 
 
     Number of q in the star =    6
     List of q in the star:
          1   0.000000000   0.500000000   0.000000000
          2  -0.500000000   0.000000000   0.000000000
          3   0.000000000  -0.500000000   0.000000000
          4   0.000000000   0.000000000   0.500000000
          5   0.000000000   0.000000000  -0.500000000
          6   0.500000000   0.000000000   0.000000000

     Diagonalizing the dynamical matrix

     q = (    0.000000000   0.500000000   0.000000000 ) 

 **************************************************************************
     freq (    1) =       1.943158 [THz] =      64.816768 [cm-1]
     freq (    2) =       1.943158 [THz] =      64.816768 [cm-1]
     freq (    3) =       3.968204 [THz] =     132.365042 [cm-1]
     freq (    4) =       7.698414 [THz] =     256.791439 [cm-1]
     freq (    5) =       7.698414 [THz] =     256.791439 [cm-1]
     freq (    6) =       8.320618 [THz] =     277.545945 [cm-1]
 **************************************************************************

     Mode symmetry, C_2v (mm2)  point group:

     freq (  1 -  1) =         64.8  [cm-1]   --> B_1  D_3  S_3      
     freq (  2 -  2) =         64.8  [cm-1]   --> B_2  D_4  S_4      
     freq (  3 -  3) =        132.4  [cm-1]   --> A_1  D_1  S_1      
     freq (  4 -  4) =        256.8  [cm-1]   --> B_1  D_3  S_3      
     freq (  5 -  5) =        256.8  [cm-1]   --> B_2  D_4  S_4      
     freq (  6 -  6) =        277.5  [cm-1]   --> A_1  D_1  S_1      

     Calculation of q =    0.7500000  -0.2500000   0.7500000
 
     Parallelization info
     --------------------
     sticks:   dense  smooth     PW     G-vecs:    dense   smooth      PW
     Min         586     192     70                18861     3584     779
     Max         587     193     71                18866     3596     780
     Sum        2347     769    283                75457    14361    3119
 


     bravais-lattice index     =            2
     lattice parameter (alat)  =      10.6867  a.u.
     unit-cell volume          =     305.1201 (a.u.)^3
     number of atoms/cell      =            2
     number of atomic types    =            2
     number of electrons       =        18.00
     number of Kohn-Sham states=            9
     kinetic-energy cutoff     =      50.0000  Ry
     charge density cutoff     =     600.0000  Ry
     Exchange-correlation      =  SLA  PW   PBX  PBC ( 1  4  3  4 0 0)

     celldm(1)=  10.686700  celldm(2)=   0.000000  celldm(3)=   0.000000
     celldm(4)=   0.000000  celldm(5)=   0.000000  celldm(6)=   0.000000

     crystal axes: (cart. coord. in units of alat)
               a(1) = (  -0.500000   0.000000   0.500000 )  
               a(2) = (   0.000000   0.500000   0.500000 )  
               a(3) = (  -0.500000   0.500000   0.000000 )  

     reciprocal axes: (cart. coord. in units 2 pi/alat)
               b(1) = ( -1.000000 -1.000000  1.000000 )  
               b(2) = (  1.000000  1.000000  1.000000 )  
               b(3) = ( -1.000000  1.000000 -1.000000 )  


     PseudoPot. # 1 for Ga read from file:
     ./Ga.pbe-dn-kjpaw_psl.0.2.upf
     MD5 check sum: f703b3f64ba021741ea9c16c693bf590
     Pseudo is Projector augmented-wave + core cor, Zval = 13.0
     Generated using "atomic" code by A. Dal Corso  v.5.0.99 svn rev. 10869
     Shape of augmentation charge: BESSEL
     Using radial grid of 1205 points,  6 beta functions with: 
                l(1) =   0
                l(2) =   0
                l(3) =   1
                l(4) =   1
                l(5) =   2
                l(6) =   2
     Q(r) pseudized with 0 coefficients 


     PseudoPot. # 2 for As read from file:
     ./As.pbe-n-kjpaw_psl.0.2.upf
     MD5 check sum: 076d91deeb42e24e5cc35739acc2a16c
     Pseudo is Projector augmented-wave + core cor, Zval =  5.0
     Generated using "atomic" code by A. Dal Corso  v.5.0.99 svn rev. 10869
     Shape of augmentation charge: PSQ
     Using radial grid of 1209 points,  4 beta functions with: 
                l(1) =   0
                l(2) =   0
                l(3) =   1
                l(4) =   1
     Q(r) pseudized with 0 coefficients 


     atomic species   valence    mass     pseudopotential
        Ga            13.00    69.72300     Ga( 1.00)
        As             5.00    74.92159     As( 1.00)

     24 Sym. Ops. (no inversion) found



   Cartesian axes

     site n.     atom                  positions (alat units)
         1           Ga  tau(   1) = (   0.0000000   0.0000000   0.0000000  )
         2           As  tau(   2) = (   0.2500000   0.2500000   0.2500000  )

     number of k points=   576

     Number of k-points >= 100: set verbosity='high' to print them.

     Dense  grid:    75457 G-vectors     FFT dimensions: (  60,  60,  60)

     Smooth grid:    14361 G-vectors     FFT dimensions: (  36,  36,  36)

     Largest allocated arrays     est. size (Mb)     dimensions
        Kohn-Sham Wavefunctions         0.07 Mb     (     482,    9)
        NL pseudopotentials             0.19 Mb     (     482,   26)
        Each V/rho on FFT grid          0.82 Mb     (   54000)
        Each G-vector array             0.14 Mb     (   18866)
        G-vector shells                 0.00 Mb     (     581)
     Largest temporary arrays     est. size (Mb)     dimensions
        Auxiliary wavefunctions         0.26 Mb     (     482,   36)
        Each subspace H/S matrix        0.02 Mb     (      36,   36)
        Each <psi_i|beta_j> matrix      0.00 Mb     (      26,    9)

     The potential is recalculated from file :
     ./_ph0/GaAs.q_5/GaAs.save/charge-density.dat

     Starting wfc are   13 atomic wfcs
     Checking if some PAW data can be deallocated... 

     Band Structure Calculation
     Davidson diagonalization with overlap

     ethr =  5.56E-11,  avg # of iterations = 11.5

     total cpu time spent up to now is       16.2 secs

     End of band structure calculation

     Number of k-points >= 100: set verbosity='high' to print the bands.

     highest occupied level (ev):     7.6030

     Writing output data file GaAs.save

                                                                                

     bravais-lattice index     =            2
     lattice parameter (alat)  =      10.6867  a.u.
     unit-cell volume          =     305.1201 (a.u.)^3
     number of atoms/cell      =            2
     number of atomic types    =            2
     kinetic-energy cut-off    =      50.0000  Ry
     charge density cut-off    =     600.0000  Ry
     convergence threshold     =      1.0E-14
     beta                      =       0.3000
     number of iterations used =            4
     Exchange-correlation      =  SLA  PW   PBX  PBC ( 1  4  3  4 0 0)


     celldm(1)=   10.68670  celldm(2)=    0.00000  celldm(3)=    0.00000
     celldm(4)=    0.00000  celldm(5)=    0.00000  celldm(6)=    0.00000

     crystal axes: (cart. coord. in units of alat)
               a(1) = ( -0.5000  0.0000  0.5000 )  
               a(2) = (  0.0000  0.5000  0.5000 )  
               a(3) = ( -0.5000  0.5000  0.0000 )  

     reciprocal axes: (cart. coord. in units 2 pi/alat)
               b(1) = ( -1.0000 -1.0000  1.0000 )  
               b(2) = (  1.0000  1.0000  1.0000 )  
               b(3) = ( -1.0000  1.0000 -1.0000 )  


     Atoms inside the unit cell: 

     Cartesian axes

     site n.  atom      mass           positions (alat units)
        1     Ga  69.7230   tau(    1) = (    0.00000    0.00000    0.00000  )
        2     As  74.9216   tau(    2) = (    0.25000    0.25000    0.25000  )

     Computing dynamical matrix for 
                    q = (   0.7500000  -0.2500000   0.7500000 )
 
      2 Sym.Ops. (no q -> -q+G )


     G cutoff = 1735.7163  (  18866 G-vectors)     FFT grid: ( 60, 60, 60)
     G cutoff =  578.5721  (   3594 G-vectors)  smooth grid: ( 36, 36, 36)
     number of k points=   576

     PseudoPot. # 1 for Ga read from file:
     ./Ga.pbe-dn-kjpaw_psl.0.2.upf
     MD5 check sum: f703b3f64ba021741ea9c16c693bf590
     Pseudo is Projector augmented-wave + core cor, Zval = 13.0
     Generated using "atomic" code by A. Dal Corso  v.5.0.99 svn rev. 10869
     Shape of augmentation charge: BESSEL
     Using radial grid of 1205 points,  6 beta functions with: 
                l(1) =   0
                l(2) =   0
                l(3) =   1
                l(4) =   1
                l(5) =   2
                l(6) =   2
     Q(r) pseudized with 0 coefficients 


     PseudoPot. # 2 for As read from file:
     ./As.pbe-n-kjpaw_psl.0.2.upf
     MD5 check sum: 076d91deeb42e24e5cc35739acc2a16c
     Pseudo is Projector augmented-wave + core cor, Zval =  5.0
     Generated using "atomic" code by A. Dal Corso  v.5.0.99 svn rev. 10869
     Shape of augmentation charge: PSQ
     Using radial grid of 1209 points,  4 beta functions with: 
                l(1) =   0
                l(2) =   0
                l(3) =   1
                l(4) =   1
     Q(r) pseudized with 0 coefficients 


     Mode symmetry, C_s (m)     point group:


     Atomic displacements:
     There are   6 irreducible representations

     Representation     1      1 modes -A'  To be done

     Representation     2      1 modes -A'  To be done

     Representation     3      1 modes -A'  To be done

     Representation     4      1 modes -A'  To be done

     Representation     5      1 modes -A''  To be done

     Representation     6      1 modes -A''  To be done



     Alpha used in Ewald sum =   2.8000
     PHONON       :  5m50.39s CPU     6m20.08s WALL



     Representation #  1 mode #   1

     Self-consistent Calculation

      iter #   1 total cpu time :   381.9 secs   av.it.:   4.9
      thresh= 1.000E-02 alpha_mix =  0.300 |ddv_scf|^2 =  3.217E-06

      iter #   2 total cpu time :   384.5 secs   av.it.:   9.2
      thresh= 1.794E-04 alpha_mix =  0.300 |ddv_scf|^2 =  9.056E-08

      iter #   3 total cpu time :   387.2 secs   av.it.:   9.9
      thresh= 3.009E-05 alpha_mix =  0.300 |ddv_scf|^2 =  1.114E-08

      iter #   4 total cpu time :   390.1 secs   av.it.:  10.1
      thresh= 1.055E-05 alpha_mix =  0.300 |ddv_scf|^2 =  2.052E-09

      iter #   5 total cpu time :   393.0 secs   av.it.:  10.6
      thresh= 4.530E-06 alpha_mix =  0.300 |ddv_scf|^2 =  1.749E-10

      iter #   6 total cpu time :   395.9 secs   av.it.:  10.6
      thresh= 1.323E-06 alpha_mix =  0.300 |ddv_scf|^2 =  9.118E-12

      iter #   7 total cpu time :   399.2 secs   av.it.:  10.0
      thresh= 3.020E-07 alpha_mix =  0.300 |ddv_scf|^2 =  3.207E-12

      iter #   8 total cpu time :   402.1 secs   av.it.:  10.9
      thresh= 1.791E-07 alpha_mix =  0.300 |ddv_scf|^2 =  1.019E-13

      iter #   9 total cpu time :   405.1 secs   av.it.:  10.3
      thresh= 3.193E-08 alpha_mix =  0.300 |ddv_scf|^2 =  1.291E-14

      iter #  10 total cpu time :   408.0 secs   av.it.:  10.6
      thresh= 1.136E-08 alpha_mix =  0.300 |ddv_scf|^2 =  1.242E-15

     End of self-consistent calculation

     Convergence has been achieved 


     Representation #  2 mode #   2

     Self-consistent Calculation

      iter #   1 total cpu time :   410.6 secs   av.it.:   7.1
      thresh= 1.000E-02 alpha_mix =  0.300 |ddv_scf|^2 =  5.557E-05

      iter #   2 total cpu time :   413.4 secs   av.it.:   9.3
      thresh= 7.455E-04 alpha_mix =  0.300 |ddv_scf|^2 =  2.028E-06

      iter #   3 total cpu time :   416.7 secs   av.it.:  10.1
      thresh= 1.424E-04 alpha_mix =  0.300 |ddv_scf|^2 =  3.694E-07

      iter #   4 total cpu time :   419.7 secs   av.it.:  10.6
      thresh= 6.078E-05 alpha_mix =  0.300 |ddv_scf|^2 =  4.565E-08

      iter #   5 total cpu time :   422.9 secs   av.it.:  10.8
      thresh= 2.137E-05 alpha_mix =  0.300 |ddv_scf|^2 =  5.115E-09

      iter #   6 total cpu time :   425.9 secs   av.it.:  10.7
      thresh= 7.152E-06 alpha_mix =  0.300 |ddv_scf|^2 =  5.920E-10

      iter #   7 total cpu time :   429.2 secs   av.it.:  10.1
      thresh= 2.433E-06 alpha_mix =  0.300 |ddv_scf|^2 =  6.758E-11

      iter #   8 total cpu time :   432.2 secs   av.it.:  10.1
      thresh= 8.221E-07 alpha_mix =  0.300 |ddv_scf|^2 =  9.716E-12

      iter #   9 total cpu time :   435.5 secs   av.it.:  10.8
      thresh= 3.117E-07 alpha_mix =  0.300 |ddv_scf|^2 =  4.314E-13

      iter #  10 total cpu time :   438.8 secs   av.it.:  10.4
      thresh= 6.568E-08 alpha_mix =  0.300 |ddv_scf|^2 =  1.151E-13

      iter #  11 total cpu time :   441.9 secs   av.it.:  10.5
      thresh= 3.393E-08 alpha_mix =  0.300 |ddv_scf|^2 =  2.444E-14

      iter #  12 total cpu time :   444.9 secs   av.it.:  10.9
      thresh= 1.563E-08 alpha_mix =  0.300 |ddv_scf|^2 =  1.312E-15

     End of self-consistent calculation

     Convergence has been achieved 


     Representation #  3 mode #   3

     Self-consistent Calculation

      iter #   1 total cpu time :   447.9 secs   av.it.:   5.1
      thresh= 1.000E-02 alpha_mix =  0.300 |ddv_scf|^2 =  4.247E-06

      iter #   2 total cpu time :   450.8 secs   av.it.:   9.3
      thresh= 2.061E-04 alpha_mix =  0.300 |ddv_scf|^2 =  1.170E-07

      iter #   3 total cpu time :   453.7 secs   av.it.:   9.8
      thresh= 3.421E-05 alpha_mix =  0.300 |ddv_scf|^2 =  1.369E-08

      iter #   4 total cpu time :   456.7 secs   av.it.:   9.9
      thresh= 1.170E-05 alpha_mix =  0.300 |ddv_scf|^2 =  2.029E-09

      iter #   5 total cpu time :   459.9 secs   av.it.:  10.3
      thresh= 4.505E-06 alpha_mix =  0.300 |ddv_scf|^2 =  1.431E-10

      iter #   6 total cpu time :   462.9 secs   av.it.:  10.8
      thresh= 1.196E-06 alpha_mix =  0.300 |ddv_scf|^2 =  1.377E-11

      iter #   7 total cpu time :   466.1 secs   av.it.:  10.3
      thresh= 3.710E-07 alpha_mix =  0.300 |ddv_scf|^2 =  3.579E-12

      iter #   8 total cpu time :   470.0 secs   av.it.:  10.8
      thresh= 1.892E-07 alpha_mix =  0.300 |ddv_scf|^2 =  1.682E-13

      iter #   9 total cpu time :   473.4 secs   av.it.:  10.7
      thresh= 4.101E-08 alpha_mix =  0.300 |ddv_scf|^2 =  1.507E-14

      iter #  10 total cpu time :   476.7 secs   av.it.:  10.6
      thresh= 1.227E-08 alpha_mix =  0.300 |ddv_scf|^2 =  2.416E-15

     End of self-consistent calculation

     Convergence has been achieved 


     Representation #  4 mode #   4

     Self-consistent Calculation

      iter #   1 total cpu time :   479.9 secs   av.it.:   7.0
      thresh= 1.000E-02 alpha_mix =  0.300 |ddv_scf|^2 =  2.247E-05

      iter #   2 total cpu time :   483.0 secs   av.it.:   9.6
      thresh= 4.740E-04 alpha_mix =  0.300 |ddv_scf|^2 =  1.700E-06

      iter #   3 total cpu time :   486.3 secs   av.it.:  10.3
      thresh= 1.304E-04 alpha_mix =  0.300 |ddv_scf|^2 =  2.908E-07

      iter #   4 total cpu time :   489.4 secs   av.it.:  10.6
      thresh= 5.392E-05 alpha_mix =  0.300 |ddv_scf|^2 =  4.089E-08

      iter #   5 total cpu time :   492.5 secs   av.it.:  10.8
      thresh= 2.022E-05 alpha_mix =  0.300 |ddv_scf|^2 =  4.708E-09

      iter #   6 total cpu time :   495.3 secs   av.it.:  10.1
      thresh= 6.861E-06 alpha_mix =  0.300 |ddv_scf|^2 =  6.649E-10

      iter #   7 total cpu time :   498.4 secs   av.it.:   9.9
      thresh= 2.578E-06 alpha_mix =  0.300 |ddv_scf|^2 =  7.273E-11

      iter #   8 total cpu time :   501.5 secs   av.it.:   9.7
      thresh= 8.528E-07 alpha_mix =  0.300 |ddv_scf|^2 =  6.752E-12

      iter #   9 total cpu time :   504.8 secs   av.it.:  10.8
      thresh= 2.598E-07 alpha_mix =  0.300 |ddv_scf|^2 =  5.465E-13

      iter #  10 total cpu time :   507.9 secs   av.it.:  10.6
      thresh= 7.392E-08 alpha_mix =  0.300 |ddv_scf|^2 =  1.353E-13

      iter #  11 total cpu time :   511.0 secs   av.it.:  10.5
      thresh= 3.678E-08 alpha_mix =  0.300 |ddv_scf|^2 =  2.087E-14

      iter #  12 total cpu time :   514.3 secs   av.it.:  10.4
      thresh= 1.445E-08 alpha_mix =  0.300 |ddv_scf|^2 =  3.413E-15

     End of self-consistent calculation

     Convergence has been achieved 


     Representation #  5 mode #   5

     Self-consistent Calculation

      iter #   1 total cpu time :   516.8 secs   av.it.:   6.9
      thresh= 1.000E-02 alpha_mix =  0.300 |ddv_scf|^2 =  8.634E-06

      iter #   2 total cpu time :   520.0 secs   av.it.:   9.8
      thresh= 2.938E-04 alpha_mix =  0.300 |ddv_scf|^2 =  1.676E-06

      iter #   3 total cpu time :   523.0 secs   av.it.:  10.5
      thresh= 1.294E-04 alpha_mix =  0.300 |ddv_scf|^2 =  5.953E-08

      iter #   4 total cpu time :   526.0 secs   av.it.:  10.8
      thresh= 2.440E-05 alpha_mix =  0.300 |ddv_scf|^2 =  3.200E-09

      iter #   5 total cpu time :   529.2 secs   av.it.:   9.4
      thresh= 5.657E-06 alpha_mix =  0.300 |ddv_scf|^2 =  2.700E-10

      iter #   6 total cpu time :   532.5 secs   av.it.:   9.6
      thresh= 1.643E-06 alpha_mix =  0.300 |ddv_scf|^2 =  9.582E-12

      iter #   7 total cpu time :   535.4 secs   av.it.:  10.7
      thresh= 3.095E-07 alpha_mix =  0.300 |ddv_scf|^2 =  2.188E-13

      iter #   8 total cpu time :   538.3 secs   av.it.:   9.1
      thresh= 4.678E-08 alpha_mix =  0.300 |ddv_scf|^2 =  6.759E-14

      iter #   9 total cpu time :   541.7 secs   av.it.:  10.4
      thresh= 2.600E-08 alpha_mix =  0.300 |ddv_scf|^2 =  1.260E-15

     End of self-consistent calculation

     Convergence has been achieved 


     Representation #  6 mode #   6

     Self-consistent Calculation

      iter #   1 total cpu time :   544.0 secs   av.it.:   4.9
      thresh= 1.000E-02 alpha_mix =  0.300 |ddv_scf|^2 =  2.139E-07

      iter #   2 total cpu time :   546.8 secs   av.it.:   9.2
      thresh= 4.625E-05 alpha_mix =  0.300 |ddv_scf|^2 =  4.587E-08

      iter #   3 total cpu time :   549.9 secs   av.it.:  10.4
      thresh= 2.142E-05 alpha_mix =  0.300 |ddv_scf|^2 =  2.446E-09

      iter #   4 total cpu time :   553.3 secs   av.it.:  10.5
      thresh= 4.945E-06 alpha_mix =  0.300 |ddv_scf|^2 =  4.584E-11

      iter #   5 total cpu time :   556.6 secs   av.it.:  10.0
      thresh= 6.770E-07 alpha_mix =  0.300 |ddv_scf|^2 =  9.092E-12

      iter #   6 total cpu time :   559.9 secs   av.it.:  10.8
      thresh= 3.015E-07 alpha_mix =  0.300 |ddv_scf|^2 =  4.910E-13

      iter #   7 total cpu time :   563.0 secs   av.it.:  10.8
      thresh= 7.007E-08 alpha_mix =  0.300 |ddv_scf|^2 =  7.641E-15

     End of self-consistent calculation

     Convergence has been achieved 
 
     Number of q in the star =   12
     List of q in the star:
          1   0.750000000  -0.250000000   0.750000000
          2  -0.750000000  -0.250000000  -0.750000000
          3   0.250000000  -0.750000000   0.750000000
          4  -0.750000000   0.250000000   0.750000000
          5   0.750000000   0.250000000  -0.750000000
          6   0.750000000   0.750000000  -0.250000000
          7  -0.750000000  -0.750000000  -0.250000000
          8  -0.750000000   0.750000000   0.250000000
          9  -0.250000000   0.750000000   0.750000000
         10   0.250000000   0.750000000  -0.750000000
         11  -0.250000000  -0.750000000  -0.750000000
         12   0.750000000  -0.750000000   0.250000000
     In addition there is the -q list: 
          1  -0.750000000   0.250000000  -0.750000000
          2   0.750000000   0.250000000   0.750000000
          3  -0.250000000   0.750000000  -0.750000000
          4   0.750000000  -0.250000000  -0.750000000
          5  -0.750000000  -0.250000000   0.750000000
          6  -0.750000000  -0.750000000   0.250000000
          7   0.750000000   0.750000000   0.250000000
          8   0.750000000  -0.750000000  -0.250000000
          9   0.250000000  -0.750000000  -0.750000000
         10  -0.250000000  -0.750000000   0.750000000
         11   0.250000000   0.750000000   0.750000000
         12  -0.750000000   0.750000000  -0.250000000

     Diagonalizing the dynamical matrix

     q = (    0.750000000  -0.250000000   0.750000000 ) 

 **************************************************************************
     freq (    1) =       2.125161 [THz] =      70.887742 [cm-1]
     freq (    2) =       2.948850 [THz] =      98.363040 [cm-1]
     freq (    3) =       5.352732 [THz] =     178.547920 [cm-1]
     freq (    4) =       7.057242 [THz] =     235.404270 [cm-1]
     freq (    5) =       7.684322 [THz] =     256.321394 [cm-1]
     freq (    6) =       8.027492 [THz] =     267.768318 [cm-1]
 **************************************************************************

     Mode symmetry, C_s (m)     point group:

     freq (  1 -  1) =         70.9  [cm-1]   --> A''                
     freq (  2 -  2) =         98.4  [cm-1]   --> A'                 
     freq (  3 -  3) =        178.5  [cm-1]   --> A'                 
     freq (  4 -  4) =        235.4  [cm-1]   --> A'                 
     freq (  5 -  5) =        256.3  [cm-1]   --> A''                
     freq (  6 -  6) =        267.8  [cm-1]   --> A'                 

     Calculation of q =    0.5000000   0.0000000   0.5000000
 
     Parallelization info
     --------------------
     sticks:   dense  smooth     PW     G-vecs:    dense   smooth      PW
     Min         586     192     64                18861     3585     709
     Max         587     193     67                18866     3596     710
     Sum        2347     769    265                75457    14361    2837
 


     bravais-lattice index     =            2
     lattice parameter (alat)  =      10.6867  a.u.
     unit-cell volume          =     305.1201 (a.u.)^3
     number of atoms/cell      =            2
     number of atomic types    =            2
     number of electrons       =        18.00
     number of Kohn-Sham states=            9
     kinetic-energy cutoff     =      50.0000  Ry
     charge density cutoff     =     600.0000  Ry
     Exchange-correlation      =  SLA  PW   PBX  PBC ( 1  4  3  4 0 0)

     celldm(1)=  10.686700  celldm(2)=   0.000000  celldm(3)=   0.000000
     celldm(4)=   0.000000  celldm(5)=   0.000000  celldm(6)=   0.000000

     crystal axes: (cart. coord. in units of alat)
[...]

     Smooth grid:    14361 G-vectors     FFT dimensions: (  36,  36,  36)

     Largest allocated arrays     est. size (Mb)     dimensions
        Kohn-Sham Wavefunctions         0.07 Mb     (     481,    9)
        NL pseudopotentials             0.19 Mb     (     481,   26)
        Each V/rho on FFT grid          0.82 Mb     (   54000)
        Each G-vector array             0.14 Mb     (   18866)
        G-vector shells                 0.00 Mb     (     581)
     Largest temporary arrays     est. size (Mb)     dimensions
        Auxiliary wavefunctions         0.26 Mb     (     481,   36)
        Each subspace H/S matrix        0.02 Mb     (      36,   36)
        Each <psi_i|beta_j> matrix      0.00 Mb     (      26,    9)

     The potential is recalculated from file :
     ./_ph0/GaAs.q_8/GaAs.save/charge-density.dat

     Starting wfc are   13 atomic wfcs
     Checking if some PAW data can be deallocated... 

     Band Structure Calculation
     Davidson diagonalization with overlap

     ethr =  5.56E-11,  avg # of iterations = 11.4

     total cpu time spent up to now is       29.8 secs

     End of band structure calculation

     Number of k-points >= 100: set verbosity='high' to print the bands.

     highest occupied level (ev):     7.6030

     Writing output data file GaAs.save

                                                                                

     bravais-lattice index     =            2
     lattice parameter (alat)  =      10.6867  a.u.
     unit-cell volume          =     305.1201 (a.u.)^3
     number of atoms/cell      =            2
     number of atomic types    =            2
     kinetic-energy cut-off    =      50.0000  Ry
     charge density cut-off    =     600.0000  Ry
     convergence threshold     =      1.0E-14
     beta                      =       0.3000
     number of iterations used =            4
     Exchange-correlation      =  SLA  PW   PBX  PBC ( 1  4  3  4 0 0)


     celldm(1)=   10.68670  celldm(2)=    0.00000  celldm(3)=    0.00000
     celldm(4)=    0.00000  celldm(5)=    0.00000  celldm(6)=    0.00000

     crystal axes: (cart. coord. in units of alat)
               a(1) = ( -0.5000  0.0000  0.5000 )  
               a(2) = (  0.0000  0.5000  0.5000 )  
               a(3) = ( -0.5000  0.5000  0.0000 )  

     reciprocal axes: (cart. coord. in units 2 pi/alat)
               b(1) = ( -1.0000 -1.0000  1.0000 )  
               b(2) = (  1.0000  1.0000  1.0000 )  
               b(3) = ( -1.0000  1.0000 -1.0000 )  


     Atoms inside the unit cell: 

     Cartesian axes

     site n.  atom      mass           positions (alat units)
        1     Ga  69.7230   tau(    1) = (    0.00000    0.00000    0.00000  )
        2     As  74.9216   tau(    2) = (    0.25000    0.25000    0.25000  )

     Computing dynamical matrix for 
                    q = (  -0.5000000  -1.0000000   0.0000000 )
 
      4 Sym.Ops. (no q -> -q+G )


     G cutoff = 1735.7163  (  18866 G-vectors)     FFT grid: ( 60, 60, 60)
     G cutoff =  578.5721  (   3592 G-vectors)  smooth grid: ( 36, 36, 36)
     number of k points=   268

     PseudoPot. # 1 for Ga read from file:
     ./Ga.pbe-dn-kjpaw_psl.0.2.upf
     MD5 check sum: f703b3f64ba021741ea9c16c693bf590
     Pseudo is Projector augmented-wave + core cor, Zval = 13.0
     Generated using "atomic" code by A. Dal Corso  v.5.0.99 svn rev. 10869
     Shape of augmentation charge: BESSEL
     Using radial grid of 1205 points,  6 beta functions with: 
                l(1) =   0
                l(2) =   0
                l(3) =   1
                l(4) =   1
                l(5) =   2
                l(6) =   2
     Q(r) pseudized with 0 coefficients 


     PseudoPot. # 2 for As read from file:
     ./As.pbe-n-kjpaw_psl.0.2.upf
     MD5 check sum: 076d91deeb42e24e5cc35739acc2a16c
     Pseudo is Projector augmented-wave + core cor, Zval =  5.0
     Generated using "atomic" code by A. Dal Corso  v.5.0.99 svn rev. 10869
     Shape of augmentation charge: PSQ
     Using radial grid of 1209 points,  4 beta functions with: 
                l(1) =   0
                l(2) =   0
                l(3) =   1
                l(4) =   1
     Q(r) pseudized with 0 coefficients 


     Mode symmetry, S_4 (-4)    point group:


     Atomic displacements:
     There are   6 irreducible representations

     Representation     1      1 modes -A    W_1  To be done

     Representation     2      1 modes -B    W_3  To be done

     Representation     3      1 modes -B    W_3  To be done

     Representation     4      1 modes -E    W_4  To be done

     Representation     5      1 modes -E*   W_2  To be done

     Representation     6      1 modes -E*   W_2  To be done



     Alpha used in Ewald sum =   2.8000
     PHONON       : 12m49.20s CPU    13m47.18s WALL



     Representation #  1 mode #   1

     Self-consistent Calculation

      iter #   1 total cpu time :   828.3 secs   av.it.:   4.8
      thresh= 1.000E-02 alpha_mix =  0.300 |ddv_scf|^2 =  1.955E-06

      iter #   2 total cpu time :   829.9 secs   av.it.:   9.4
      thresh= 1.398E-04 alpha_mix =  0.300 |ddv_scf|^2 =  3.918E-08

      iter #   3 total cpu time :   831.4 secs   av.it.:   9.9
      thresh= 1.979E-05 alpha_mix =  0.300 |ddv_scf|^2 =  6.059E-09

      iter #   4 total cpu time :   833.8 secs   av.it.:  10.8
      thresh= 7.784E-06 alpha_mix =  0.300 |ddv_scf|^2 =  3.767E-10

      iter #   5 total cpu time :   835.6 secs   av.it.:  10.8
      thresh= 1.941E-06 alpha_mix =  0.300 |ddv_scf|^2 =  2.321E-11

      iter #   6 total cpu time :   837.2 secs   av.it.:  10.8
      thresh= 4.818E-07 alpha_mix =  0.300 |ddv_scf|^2 =  1.433E-12

      iter #   7 total cpu time :   838.8 secs   av.it.:  10.1
      thresh= 1.197E-07 alpha_mix =  0.300 |ddv_scf|^2 =  3.753E-13

      iter #   8 total cpu time :   841.1 secs   av.it.:  10.7
      thresh= 6.126E-08 alpha_mix =  0.300 |ddv_scf|^2 =  6.748E-15

     End of self-consistent calculation

     Convergence has been achieved 


     Representation #  2 mode #   2

     Self-consistent Calculation

      iter #   1 total cpu time :   842.3 secs   av.it.:   5.0
      thresh= 1.000E-02 alpha_mix =  0.300 |ddv_scf|^2 =  1.159E-06

      iter #   2 total cpu time :   844.0 secs   av.it.:   9.1
      thresh= 1.076E-04 alpha_mix =  0.300 |ddv_scf|^2 =  1.014E-07

      iter #   3 total cpu time :   845.6 secs   av.it.:   9.7
      thresh= 3.184E-05 alpha_mix =  0.300 |ddv_scf|^2 =  4.288E-09

      iter #   4 total cpu time :   847.2 secs   av.it.:  10.3
      thresh= 6.548E-06 alpha_mix =  0.300 |ddv_scf|^2 =  8.655E-11

      iter #   5 total cpu time :   849.0 secs   av.it.:  10.1
      thresh= 9.303E-07 alpha_mix =  0.300 |ddv_scf|^2 =  1.875E-11

      iter #   6 total cpu time :   850.8 secs   av.it.:  10.8
      thresh= 4.330E-07 alpha_mix =  0.300 |ddv_scf|^2 =  7.380E-13

      iter #   7 total cpu time :   852.6 secs   av.it.:  10.8
      thresh= 8.590E-08 alpha_mix =  0.300 |ddv_scf|^2 =  1.077E-14

      iter #   8 total cpu time :   854.2 secs   av.it.:   9.4
      thresh= 1.038E-08 alpha_mix =  0.300 |ddv_scf|^2 =  4.202E-15

     End of self-consistent calculation

     Convergence has been achieved 


     Representation #  3 mode #   3

     Self-consistent Calculation

      iter #   1 total cpu time :   856.2 secs   av.it.:   6.9
      thresh= 1.000E-02 alpha_mix =  0.300 |ddv_scf|^2 =  1.616E-05

      iter #   2 total cpu time :   857.9 secs   av.it.:   9.7
      thresh= 4.020E-04 alpha_mix =  0.300 |ddv_scf|^2 =  1.580E-06

      iter #   3 total cpu time :   859.7 secs   av.it.:  10.2
      thresh= 1.257E-04 alpha_mix =  0.300 |ddv_scf|^2 =  1.504E-07

      iter #   4 total cpu time :   861.5 secs   av.it.:  10.9
      thresh= 3.878E-05 alpha_mix =  0.300 |ddv_scf|^2 =  5.197E-09

      iter #   5 total cpu time :   863.3 secs   av.it.:   9.7
      thresh= 7.209E-06 alpha_mix =  0.300 |ddv_scf|^2 =  2.225E-10

      iter #   6 total cpu time :   865.0 secs   av.it.:   9.5
      thresh= 1.491E-06 alpha_mix =  0.300 |ddv_scf|^2 =  1.285E-11

      iter #   7 total cpu time :   866.7 secs   av.it.:  10.8
      thresh= 3.585E-07 alpha_mix =  0.300 |ddv_scf|^2 =  3.384E-13

      iter #   8 total cpu time :   868.3 secs   av.it.:   9.4
      thresh= 5.817E-08 alpha_mix =  0.300 |ddv_scf|^2 =  1.132E-13

      iter #   9 total cpu time :   870.2 secs   av.it.:  10.6
      thresh= 3.364E-08 alpha_mix =  0.300 |ddv_scf|^2 =  3.672E-15

     End of self-consistent calculation

     Convergence has been achieved 


     Representation #  4 mode #   4

     Self-consistent Calculation

      iter #   1 total cpu time :   871.8 secs   av.it.:   7.0
      thresh= 1.000E-02 alpha_mix =  0.300 |ddv_scf|^2 =  2.308E-05

      iter #   2 total cpu time :   874.0 secs   av.it.:   9.5
      thresh= 4.804E-04 alpha_mix =  0.300 |ddv_scf|^2 =  1.448E-06

      iter #   3 total cpu time :   875.9 secs   av.it.:  10.1
      thresh= 1.203E-04 alpha_mix =  0.300 |ddv_scf|^2 =  2.452E-07

      iter #   4 total cpu time :   877.7 secs   av.it.:  10.9
      thresh= 4.951E-05 alpha_mix =  0.300 |ddv_scf|^2 =  1.060E-08

      iter #   5 total cpu time :   879.5 secs   av.it.:  10.4
      thresh= 1.030E-05 alpha_mix =  0.300 |ddv_scf|^2 =  1.212E-10

      iter #   6 total cpu time :   881.2 secs   av.it.:   9.0
      thresh= 1.101E-06 alpha_mix =  0.300 |ddv_scf|^2 =  4.029E-11

      iter #   7 total cpu time :   883.0 secs   av.it.:  10.7
      thresh= 6.347E-07 alpha_mix =  0.300 |ddv_scf|^2 =  6.295E-13

      iter #   8 total cpu time :   884.6 secs   av.it.:   9.7
      thresh= 7.934E-08 alpha_mix =  0.300 |ddv_scf|^2 =  1.324E-13

      iter #   9 total cpu time :   886.3 secs   av.it.:  10.4
      thresh= 3.638E-08 alpha_mix =  0.300 |ddv_scf|^2 =  7.154E-15

     End of self-consistent calculation

     Convergence has been achieved 


     Representation #  5 mode #   5

     Self-consistent Calculation

      iter #   1 total cpu time :   888.0 secs   av.it.:   6.9
      thresh= 1.000E-02 alpha_mix =  0.300 |ddv_scf|^2 =  2.263E-05

      iter #   2 total cpu time :   889.6 secs   av.it.:   9.6
      thresh= 4.758E-04 alpha_mix =  0.300 |ddv_scf|^2 =  2.039E-06

      iter #   3 total cpu time :   891.4 secs   av.it.:  10.2
      thresh= 1.428E-04 alpha_mix =  0.300 |ddv_scf|^2 =  1.034E-07

      iter #   4 total cpu time :   893.3 secs   av.it.:  11.0
      thresh= 3.216E-05 alpha_mix =  0.300 |ddv_scf|^2 =  3.557E-09

      iter #   5 total cpu time :   895.1 secs   av.it.:   9.5
      thresh= 5.964E-06 alpha_mix =  0.300 |ddv_scf|^2 =  4.814E-10

      iter #   6 total cpu time :   896.9 secs   av.it.:   9.8
      thresh= 2.194E-06 alpha_mix =  0.300 |ddv_scf|^2 =  3.063E-11

      iter #   7 total cpu time :   898.7 secs   av.it.:  10.7
      thresh= 5.534E-07 alpha_mix =  0.300 |ddv_scf|^2 =  6.930E-13

      iter #   8 total cpu time :   900.3 secs   av.it.:   9.7
      thresh= 8.324E-08 alpha_mix =  0.300 |ddv_scf|^2 =  1.389E-13

      iter #   9 total cpu time :   902.0 secs   av.it.:  10.4
      thresh= 3.727E-08 alpha_mix =  0.300 |ddv_scf|^2 =  5.460E-15

     End of self-consistent calculation

     Convergence has been achieved 


     Representation #  6 mode #   6

     Self-consistent Calculation

      iter #   1 total cpu time :   904.0 secs   av.it.:   5.0
      thresh= 1.000E-02 alpha_mix =  0.300 |ddv_scf|^2 =  6.748E-07

      iter #   2 total cpu time :   905.6 secs   av.it.:   9.2
      thresh= 8.214E-05 alpha_mix =  0.300 |ddv_scf|^2 =  6.933E-08

      iter #   3 total cpu time :   907.3 secs   av.it.:   9.8
      thresh= 2.633E-05 alpha_mix =  0.300 |ddv_scf|^2 =  3.788E-09

      iter #   4 total cpu time :   909.2 secs   av.it.:  10.6
      thresh= 6.155E-06 alpha_mix =  0.300 |ddv_scf|^2 =  6.246E-11

      iter #   5 total cpu time :   911.1 secs   av.it.:   9.8
      thresh= 7.903E-07 alpha_mix =  0.300 |ddv_scf|^2 =  1.375E-11

      iter #   6 total cpu time :   913.0 secs   av.it.:  10.9
      thresh= 3.709E-07 alpha_mix =  0.300 |ddv_scf|^2 =  6.708E-13

      iter #   7 total cpu time :   914.8 secs   av.it.:  10.8
      thresh= 8.190E-08 alpha_mix =  0.300 |ddv_scf|^2 =  1.504E-14

      iter #   8 total cpu time :   916.3 secs   av.it.:   9.1
      thresh= 1.226E-08 alpha_mix =  0.300 |ddv_scf|^2 =  6.052E-15

     End of self-consistent calculation

     Convergence has been achieved 
 
     Number of q in the star =    6
     List of q in the star:
          1  -0.500000000  -1.000000000   0.000000000
          2   0.000000000   1.000000000  -0.500000000
          3   0.000000000   1.000000000   0.500000000
          4   0.500000000   1.000000000   0.000000000
          5   0.000000000  -0.500000000  -1.000000000
          6   0.000000000   0.500000000  -1.000000000

     Diagonalizing the dynamical matrix

     q = (   -0.500000000  -1.000000000   0.000000000 ) 

 **************************************************************************
     freq (    1) =       2.808397 [THz] =      93.678025 [cm-1]
     freq (    2) =       3.187637 [THz] =     106.328120 [cm-1]
     freq (    3) =       5.918998 [THz] =     197.436513 [cm-1]
     freq (    4) =       6.181053 [THz] =     206.177736 [cm-1]
     freq (    5) =       7.704596 [THz] =     256.997658 [cm-1]
     freq (    6) =       8.035446 [THz] =     268.033639 [cm-1]
 **************************************************************************

     Mode symmetry, S_4 (-4)    point group:

     freq (  1 -  1) =         93.7  [cm-1]   --> B    W_3           
     freq (  2 -  2) =        106.3  [cm-1]   --> E*   W_2           
     freq (  3 -  3) =        197.4  [cm-1]   --> A    W_1           
     freq (  4 -  4) =        206.2  [cm-1]   --> E    W_4           
     freq (  5 -  5) =        257.0  [cm-1]   --> E*   W_2           
     freq (  6 -  6) =        268.0  [cm-1]   --> B    W_3           
 
     init_run     :      6.44s CPU      6.79s WALL (       7 calls)
     electrons    :     17.45s CPU     18.31s WALL (       7 calls)

     Called by init_run:
     wfcinit      :      0.00s CPU      0.08s WALL (       7 calls)
     potinit      :      0.85s CPU      0.92s WALL (       7 calls)

     Called by electrons:
     c_bands      :     17.44s CPU     18.31s WALL (       7 calls)
     v_of_rho     :      0.31s CPU      0.32s WALL (       8 calls)
     newd         :      0.64s CPU      0.65s WALL (       8 calls)

     Called by c_bands:
     init_us_2    :      1.76s CPU      1.84s WALL (    9329 calls)
     cegterg      :     14.31s CPU     14.84s WALL (     284 calls)

     Called by *egterg:
     h_psi        :     13.69s CPU     14.20s WALL (    3844 calls)
     s_psi        :     14.89s CPU     14.96s WALL (  243219 calls)
     g_psi        :      0.12s CPU      0.11s WALL (    3276 calls)
     cdiaghg      :      0.89s CPU      0.94s WALL (    3560 calls)

     Called by h_psi:
     add_vuspsi   :      8.75s CPU      8.90s WALL (  119359 calls)

     General routines
     calbec       :     18.39s CPU     18.48s WALL (  259124 calls)
     fft          :     14.31s CPU     14.93s WALL (    8411 calls)
     ffts         :      1.33s CPU      1.41s WALL (    2142 calls)
     fftw         :    379.99s CPU    395.45s WALL ( 1889522 calls)
     interpolate  :      0.03s CPU      0.04s WALL (      15 calls)
     davcio       :      0.70s CPU     10.31s WALL (   45650 calls)
 
     Parallel routines
     fft_scatter  :     77.51s CPU     90.28s WALL ( 1900075 calls)

     PAW routines
     PAW_pot      :      0.38s CPU      0.41s WALL (       8 calls)
 
     PHONON       : 14m12.88s CPU    15m16.91s WALL

     INITIALIZATION: 
     phq_setup    :      0.77s CPU      0.90s WALL (       8 calls)
     phq_init     :     34.86s CPU     35.46s WALL (       8 calls)
 
     phq_init     :     34.86s CPU     35.46s WALL (       8 calls)
     set_drhoc    :     19.00s CPU     19.13s WALL (      24 calls)
     init_vloc    :      0.07s CPU      0.08s WALL (       8 calls)
     init_us_1    :      2.80s CPU      2.82s WALL (       8 calls)
     newd         :      0.64s CPU      0.65s WALL (       8 calls)
     dvanqq       :      5.09s CPU      5.13s WALL (       8 calls)
     drho         :      7.47s CPU      7.74s WALL (       8 calls)
 
     DYNAMICAL MATRIX:
     dynmat0      :     13.40s CPU     13.50s WALL (       8 calls)
     phqscf       :    767.65s CPU    823.15s WALL (       8 calls)
     dynmatrix    :      2.44s CPU      2.58s WALL (       8 calls)
 
     phqscf       :    767.65s CPU    823.15s WALL (       8 calls)
     solve_linter :    766.66s CPU    820.15s WALL (      38 calls)
     drhodv       :      0.68s CPU      0.75s WALL (      38 calls)
 
     dynmat0      :     13.40s CPU     13.50s WALL (       8 calls)
     dynmat_us    :      0.26s CPU      0.27s WALL (       8 calls)
     d2ionq       :      0.04s CPU      0.04s WALL (       8 calls)
     dynmatcc     :     12.96s CPU     12.98s WALL (       8 calls)
 
     dynmat_us    :      0.26s CPU      0.27s WALL (       8 calls)
     addusdynmat  :      0.00s CPU      0.00s WALL (       8 calls)
 
     phqscf       :    767.65s CPU    823.15s WALL (       8 calls)
     solve_linter :    766.66s CPU    820.15s WALL (      38 calls)
 
     solve_linter :    766.66s CPU    820.15s WALL (      38 calls)
     dvqpsi_us    :      5.00s CPU      5.17s WALL (     900 calls)
     ortho        :      2.29s CPU      2.41s WALL (    8333 calls)
     cgsolve      :    409.27s CPU    423.50s WALL (    8333 calls)
     incdrhoscf   :     39.07s CPU     40.58s WALL (    8333 calls)
     addusddens   :     39.04s CPU     39.33s WALL (     390 calls)
     vpsifft      :     29.16s CPU     30.24s WALL (    7361 calls)
     dv_of_drho   :     17.36s CPU     17.78s WALL (     453 calls)
     mix_pot      :      5.07s CPU     12.02s WALL (     359 calls)
     psymdvscf    :     28.27s CPU     28.91s WALL (     352 calls)
     newdq        :     41.44s CPU     41.59s WALL (     359 calls)
     adddvscf     :      0.83s CPU      0.83s WALL (    7433 calls)
     drhodvus     :      0.06s CPU      0.14s WALL (      38 calls)
 
     dvqpsi_us    :      5.00s CPU      5.17s WALL (     900 calls)
     dvqpsi_us_on :      0.50s CPU      0.49s WALL (     900 calls)
 
     cgsolve      :    409.27s CPU    423.50s WALL (    8333 calls)
     ch_psi       :    403.25s CPU    417.25s WALL (  115515 calls)
 
     ch_psi       :    403.25s CPU    417.25s WALL (  115515 calls)
     h_psiq       :    377.27s CPU    390.99s WALL (  115515 calls)
     last         :     25.03s CPU     25.29s WALL (  115515 calls)
 
     h_psiq       :    377.27s CPU    390.99s WALL (  115515 calls)
     firstfft     :    190.50s CPU    194.97s WALL (  762102 calls)
     secondfft    :    149.17s CPU    157.63s WALL (  762102 calls)
     add_vuspsi   :      8.75s CPU      8.90s WALL (  119359 calls)
 
     incdrhoscf   :     39.07s CPU     40.58s WALL (    8333 calls)
     addusdbec    :      1.00s CPU      1.06s WALL (    9209 calls)
 
     drhodvus     :      0.06s CPU      0.14s WALL (      38 calls)
 
      General routines
     calbec       :     18.39s CPU     18.48s WALL (  259124 calls)
     fft          :     14.31s CPU     14.93s WALL (    8411 calls)
     ffts         :      1.33s CPU      1.41s WALL (    2142 calls)
     fftw         :    379.99s CPU    395.45s WALL ( 1889522 calls)
     cinterpolate :      2.15s CPU      2.25s WALL (     951 calls)
     davcio       :      0.70s CPU     10.31s WALL (   45650 calls)
     write_rec    :      0.61s CPU     23.27s WALL (     397 calls)
 
 
     PHONON       : 14m12.88s CPU    15m16.91s WALL

 
   This run was terminated on:  13:25:26  15Nov2015            

=------------------------------------------------------------------------------=
   JOB DONE.
=------------------------------------------------------------------------------=
 
TACC: Shutdown complete. Exiting.
