TACC: Starting up job 6189490
TACC: Setting up parallel environment for MVAPICH2+mpispawn.
TACC: Starting parallel tasks...

     Program PHONON v.5.1.2 starts on  9Dec2015 at 15:12:46 

     This program is part of the open-source Quantum ESPRESSO suite
     for quantum simulation of materials; please cite
         "P. Giannozzi et al., J. Phys.:Condens. Matter 21 395502 (2009);
          URL http://www.quantum-espresso.org", 
     in publications or presentations arising from this work. More details at
     http://www.quantum-espresso.org/quote

     Parallel version (MPI), running on    32 processors
     K-points division:     npool     =       8
     R & G space division:  proc/nbgrp/npool/nimage =       4

     Reading data from directory:
     ./GaAs.save

   Info: using nr1, nr2, nr3 values from input

   Info: using nr1s, nr2s, nr3s values from input

     IMPORTANT: XC functional enforced from input :
     Exchange-correlation      =  SLA  PW   PBX  PBC ( 1  4  3  4 0 0)
     Any further DFT definition will be discarded
     Please, verify this is what you really want

               file Ga.pbe-dn-kjpaw_psl.0.2.upf: wavefunction(s)  4S 3D renormalized
 
     Parallelization info
     --------------------
     sticks:   dense  smooth     PW     G-vecs:    dense   smooth      PW
     Min         586     192     60                18861     3585     610
     Max         587     193     61                18866     3596     613
     Sum        2347     769    241                75457    14361    2445
 


     Dynamical matrices for ( 8, 8, 8)  uniform grid of q-points
     (  29q-points):
       N         xq(1)         xq(2)         xq(3) 
       1   0.000000000   0.000000000   0.000000000
       2  -0.125000000   0.125000000  -0.125000000
       3  -0.250000000   0.250000000  -0.250000000
       4  -0.375000000   0.375000000  -0.375000000
       5   0.500000000  -0.500000000   0.500000000
       6   0.000000000   0.250000000   0.000000000
       7  -0.125000000   0.375000000  -0.125000000
       8  -0.250000000   0.500000000  -0.250000000
       9   0.625000000  -0.375000000   0.625000000
      10   0.500000000  -0.250000000   0.500000000
      11   0.375000000  -0.125000000   0.375000000
      12   0.250000000   0.000000000   0.250000000
      13   0.000000000   0.500000000   0.000000000
      14  -0.125000000   0.625000000  -0.125000000
      15   0.750000000  -0.250000000   0.750000000
      16   0.625000000  -0.125000000   0.625000000
      17   0.500000000   0.000000000   0.500000000
      18   0.000000000   0.750000000   0.000000000
      19   0.875000000  -0.125000000   0.875000000
      20   0.750000000   0.000000000   0.750000000
      21   0.000000000  -1.000000000   0.000000000
      22  -0.250000000   0.500000000   0.000000000
      23   0.625000000  -0.375000000   0.875000000
      24   0.500000000  -0.250000000   0.750000000
      25   0.750000000  -0.250000000   1.000000000
      26   0.625000000  -0.125000000   0.875000000
      27   0.500000000   0.000000000   0.750000000
      28  -0.250000000  -1.000000000   0.000000000
      29  -0.500000000  -1.000000000   0.000000000

     Calculation of q =    0.0000000   0.0000000   0.0000000

                                                                                

     bravais-lattice index     =            2
     lattice parameter (alat)  =      10.6867  a.u.
     unit-cell volume          =     305.1201 (a.u.)^3
     number of atoms/cell      =            2
     number of atomic types    =            2
     kinetic-energy cut-off    =      50.0000  Ry
     charge density cut-off    =     600.0000  Ry
     convergence threshold     =      1.0E-14
     beta                      =       0.3000
     number of iterations used =            4
     Exchange-correlation      =  SLA  PW   PBX  PBC ( 1  4  3  4 0 0)


     celldm(1)=   10.68670  celldm(2)=    0.00000  celldm(3)=    0.00000
     celldm(4)=    0.00000  celldm(5)=    0.00000  celldm(6)=    0.00000

     crystal axes: (cart. coord. in units of alat)
               a(1) = ( -0.5000  0.0000  0.5000 )  
               a(2) = (  0.0000  0.5000  0.5000 )  
               a(3) = ( -0.5000  0.5000  0.0000 )  

     reciprocal axes: (cart. coord. in units 2 pi/alat)
               b(1) = ( -1.0000 -1.0000  1.0000 )  
               b(2) = (  1.0000  1.0000  1.0000 )  
               b(3) = ( -1.0000  1.0000 -1.0000 )  


     Atoms inside the unit cell: 

     Cartesian axes

     site n.  atom      mass           positions (alat units)
        1     Ga  69.7230   tau(    1) = (    0.00000    0.00000    0.00000  )
        2     As  74.9216   tau(    2) = (    0.25000    0.25000    0.25000  )

     Computing dynamical matrix for 
                    q = (   0.0000000   0.0000000   0.0000000 )
 
     25 Sym.Ops. (with q -> -q+G )


     G cutoff = 1735.7163  (  18866 G-vectors)     FFT grid: ( 60, 60, 60)
     G cutoff =  578.5721  (   3596 G-vectors)  smooth grid: ( 36, 36, 36)
     number of k points=    29

     PseudoPot. # 1 for Ga read from file:
     ./Ga.pbe-dn-kjpaw_psl.0.2.upf
     MD5 check sum: f703b3f64ba021741ea9c16c693bf590
     Pseudo is Projector augmented-wave + core cor, Zval = 13.0
     Generated using "atomic" code by A. Dal Corso  v.5.0.99 svn rev. 10869
     Shape of augmentation charge: BESSEL
     Using radial grid of 1205 points,  6 beta functions with: 
                l(1) =   0
                l(2) =   0
                l(3) =   1
                l(4) =   1
                l(5) =   2
                l(6) =   2
     Q(r) pseudized with 0 coefficients 


     PseudoPot. # 2 for As read from file:
     ./As.pbe-n-kjpaw_psl.0.2.upf
     MD5 check sum: 076d91deeb42e24e5cc35739acc2a16c
     Pseudo is Projector augmented-wave + core cor, Zval =  5.0
     Generated using "atomic" code by A. Dal Corso  v.5.0.99 svn rev. 10869
     Shape of augmentation charge: PSQ
     Using radial grid of 1209 points,  4 beta functions with: 
                l(1) =   0
                l(2) =   0
                l(3) =   1
                l(4) =   1
     Q(r) pseudized with 0 coefficients 


     Mode symmetry, T_d (-43m)  point group:


     Electric field:
     Dielectric constant
     Born effective charges in two ways 


     Atomic displacements:
     There are   2 irreducible representations

     Representation     1      3 modes -T_2  G_15 P_4  To be done

     Representation     2      3 modes -T_2  G_15 P_4  To be done



     Alpha used in Ewald sum =   2.8000
     PHONON       :     5.93s CPU         9.02s WALL


     Electric Fields Calculation

      iter #   1 total cpu time :    12.2 secs   av.it.:   6.2
      thresh= 1.000E-02 alpha_mix =  0.300 |ddv_scf|^2 =  2.404E-08

      iter #   2 total cpu time :    14.4 secs   av.it.:  11.1
      thresh= 1.551E-05 alpha_mix =  0.300 |ddv_scf|^2 =  8.661E-09

      iter #   3 total cpu time :    16.5 secs   av.it.:  11.3
      thresh= 9.306E-06 alpha_mix =  0.300 |ddv_scf|^2 =  8.635E-10

      iter #   4 total cpu time :    18.7 secs   av.it.:  11.6
      thresh= 2.939E-06 alpha_mix =  0.300 |ddv_scf|^2 =  1.425E-11

      iter #   5 total cpu time :    21.3 secs   av.it.:  11.3
      thresh= 3.775E-07 alpha_mix =  0.300 |ddv_scf|^2 =  2.944E-12

      iter #   6 total cpu time :    24.2 secs   av.it.:  11.7
      thresh= 1.716E-07 alpha_mix =  0.300 |ddv_scf|^2 =  2.862E-14

      iter #   7 total cpu time :    26.3 secs   av.it.:  11.9
      thresh= 1.692E-08 alpha_mix =  0.300 |ddv_scf|^2 =  1.966E-15

     End of electric fields calculation

          Dielectric constant in cartesian axis 

          (      30.081893415       0.000000000       0.000000000 )
          (       0.000000000      30.081893415       0.000000000 )
          (       0.000000000       0.000000000      30.081893415 )

          Effective charges (d Force / dE) in cartesian axis

           atom      1   Ga 
      Ex  (        2.20312        0.00000        0.00000 )
      Ey  (       -0.00000        2.20312       -0.00000 )
      Ez  (        0.00000       -0.00000        2.20312 )
           atom      2   As 
      Ex  (       -2.46906       -0.00000       -0.00000 )
      Ey  (       -0.00000       -2.46906       -0.00000 )
      Ez  (       -0.00000       -0.00000       -2.46906 )


     Representation #  1 modes #   1  2  3

     Self-consistent Calculation

      iter #   1 total cpu time :    29.8 secs   av.it.:   4.5
      thresh= 1.000E-02 alpha_mix =  0.300 |ddv_scf|^2 =  8.277E-09

      iter #   2 total cpu time :    32.7 secs   av.it.:  10.6
      thresh= 9.098E-06 alpha_mix =  0.300 |ddv_scf|^2 =  2.829E-09

      iter #   3 total cpu time :    35.0 secs   av.it.:  11.4
      thresh= 5.319E-06 alpha_mix =  0.300 |ddv_scf|^2 =  1.240E-10

      iter #   4 total cpu time :    38.3 secs   av.it.:  11.1
      thresh= 1.114E-06 alpha_mix =  0.300 |ddv_scf|^2 =  3.243E-12

      iter #   5 total cpu time :    40.6 secs   av.it.:  11.2
      thresh= 1.801E-07 alpha_mix =  0.300 |ddv_scf|^2 =  7.399E-13

      iter #   6 total cpu time :    43.0 secs   av.it.:  11.6
      thresh= 8.601E-08 alpha_mix =  0.300 |ddv_scf|^2 =  1.690E-14

      iter #   7 total cpu time :    45.9 secs   av.it.:  11.6
      thresh= 1.300E-08 alpha_mix =  0.300 |ddv_scf|^2 =  6.824E-16

     End of self-consistent calculation

     Convergence has been achieved 


     Representation #  2 modes #   4  5  6

     Self-consistent Calculation

      iter #   1 total cpu time :    48.9 secs   av.it.:   6.7
      thresh= 1.000E-02 alpha_mix =  0.300 |ddv_scf|^2 =  5.941E-07

      iter #   2 total cpu time :    51.5 secs   av.it.:  11.3
      thresh= 7.707E-05 alpha_mix =  0.300 |ddv_scf|^2 =  1.653E-07

      iter #   3 total cpu time :    53.9 secs   av.it.:  12.0
      thresh= 4.066E-05 alpha_mix =  0.300 |ddv_scf|^2 =  2.539E-09

      iter #   4 total cpu time :    56.3 secs   av.it.:  11.4
      thresh= 5.039E-06 alpha_mix =  0.300 |ddv_scf|^2 =  2.926E-11

      iter #   5 total cpu time :    58.5 secs   av.it.:  10.0
      thresh= 5.409E-07 alpha_mix =  0.300 |ddv_scf|^2 =  8.566E-12

      iter #   6 total cpu time :    60.9 secs   av.it.:  11.9
      thresh= 2.927E-07 alpha_mix =  0.300 |ddv_scf|^2 =  1.419E-13

      iter #   7 total cpu time :    63.3 secs   av.it.:  11.5
      thresh= 3.767E-08 alpha_mix =  0.300 |ddv_scf|^2 =  1.398E-14

      iter #   8 total cpu time :    65.5 secs   av.it.:  10.5
      thresh= 1.182E-08 alpha_mix =  0.300 |ddv_scf|^2 =  5.055E-15

     End of self-consistent calculation

     Convergence has been achieved 
 
     Number of q in the star =    1
     List of q in the star:
          1   0.000000000   0.000000000   0.000000000

          Dielectric constant in cartesian axis 

          (      30.081893415       0.000000000       0.000000000 )
          (       0.000000000      30.081893415       0.000000000 )
          (       0.000000000       0.000000000      30.081893415 )

          Effective charges (d Force / dE) in cartesian axis

           atom      1   Ga 
      Ex  (        2.20312        0.00000        0.00000 )
      Ey  (       -0.00000        2.20312       -0.00000 )
      Ez  (        0.00000       -0.00000        2.20312 )
           atom      2   As 
      Ex  (       -2.46906       -0.00000       -0.00000 )
      Ey  (       -0.00000       -2.46906       -0.00000 )
      Ez  (       -0.00000       -0.00000       -2.46906 )

          Effective charges (d P / du) in cartesian axis 

           atom      1   Ga 
      Px  (        2.18310        0.00000        0.00000 )
      Py  (        0.00000        2.18310       -0.00000 )
      Pz  (        0.00000       -0.00000        2.18310 )
           atom      2   As 
      Px  (       -2.43365        0.00000       -0.00000 )
      Py  (       -0.00000       -2.43365       -0.00000 )
      Pz  (        0.00000        0.00000       -2.43365 )

     Diagonalizing the dynamical matrix

     q = (    0.000000000   0.000000000   0.000000000 ) 

 **************************************************************************
     freq (    1) =      -0.273089 [THz] =      -9.109282 [cm-1]
     freq (    2) =      -0.273089 [THz] =      -9.109282 [cm-1]
     freq (    3) =      -0.273089 [THz] =      -9.109282 [cm-1]
     freq (    4) =       8.072377 [THz] =     269.265503 [cm-1]
     freq (    5) =       8.072377 [THz] =     269.265503 [cm-1]
     freq (    6) =       8.072377 [THz] =     269.265503 [cm-1]
 **************************************************************************

     Mode symmetry, T_d (-43m)  point group:

     freq (  1 -  3) =         -9.1  [cm-1]   --> T_2  G_15 P_4   I+R
     freq (  4 -  6) =        269.3  [cm-1]   --> T_2  G_15 P_4   I+R

     Calculation of q =   -0.1250000   0.1250000  -0.1250000
 
     Parallelization info
     --------------------
     sticks:   dense  smooth     PW     G-vecs:    dense   smooth      PW
     Min         586     192     63                18861     3582     659
     Max         587     193     64                18866     3598     660
     Sum        2347     769    253                75457    14361    2637
 


     bravais-lattice index     =            2
     lattice parameter (alat)  =      10.6867  a.u.
     unit-cell volume          =     305.1201 (a.u.)^3
     number of atoms/cell      =            2
     number of atomic types    =            2
     number of electrons       =        18.00
     number of Kohn-Sham states=            9
     kinetic-energy cutoff     =      50.0000  Ry
     charge density cutoff     =     600.0000  Ry
     Exchange-correlation      =  SLA  PW   PBX  PBC ( 1  4  3  4 0 0)

     celldm(1)=  10.686700  celldm(2)=   0.000000  celldm(3)=   0.000000
     celldm(4)=   0.000000  celldm(5)=   0.000000  celldm(6)=   0.000000

     crystal axes: (cart. coord. in units of alat)
               a(1) = (  -0.500000   0.000000   0.500000 )  
               a(2) = (   0.000000   0.500000   0.500000 )  
               a(3) = (  -0.500000   0.500000   0.000000 )  

     reciprocal axes: (cart. coord. in units 2 pi/alat)
               b(1) = ( -1.000000 -1.000000  1.000000 )  
               b(2) = (  1.000000  1.000000  1.000000 )  
               b(3) = ( -1.000000  1.000000 -1.000000 )  


     PseudoPot. # 1 for Ga read from file:
     ./Ga.pbe-dn-kjpaw_psl.0.2.upf
     MD5 check sum: f703b3f64ba021741ea9c16c693bf590
     Pseudo is Projector augmented-wave + core cor, Zval = 13.0
     Generated using "atomic" code by A. Dal Corso  v.5.0.99 svn rev. 10869
     Shape of augmentation charge: BESSEL
     Using radial grid of 1205 points,  6 beta functions with: 
                l(1) =   0
                l(2) =   0
                l(3) =   1
                l(4) =   1
                l(5) =   2
                l(6) =   2
     Q(r) pseudized with 0 coefficients 


     PseudoPot. # 2 for As read from file:
     ./As.pbe-n-kjpaw_psl.0.2.upf
     MD5 check sum: 076d91deeb42e24e5cc35739acc2a16c
     Pseudo is Projector augmented-wave + core cor, Zval =  5.0
     Generated using "atomic" code by A. Dal Corso  v.5.0.99 svn rev. 10869
     Shape of augmentation charge: PSQ
     Using radial grid of 1209 points,  4 beta functions with: 
                l(1) =   0
                l(2) =   0
                l(3) =   1
                l(4) =   1
     Q(r) pseudized with 0 coefficients 


     atomic species   valence    mass     pseudopotential
        Ga            13.00    69.72300     Ga( 1.00)
        As             5.00    74.92159     As( 1.00)

     24 Sym. Ops. (no inversion) found



   Cartesian axes

     site n.     atom                  positions (alat units)
         1           Ga  tau(   1) = (   0.0000000   0.0000000   0.0000000  )
         2           As  tau(   2) = (   0.2500000   0.2500000   0.2500000  )

     number of k points=   240

     Number of k-points >= 100: set verbosity='high' to print them.

     Dense  grid:    75457 G-vectors     FFT dimensions: (  60,  60,  60)

     Smooth grid:    14361 G-vectors     FFT dimensions: (  36,  36,  36)

     Largest allocated arrays     est. size (Mb)     dimensions
        Kohn-Sham Wavefunctions         0.06 Mb     (     473,    9)
        NL pseudopotentials             0.19 Mb     (     473,   26)
        Each V/rho on FFT grid          0.82 Mb     (   54000)
        Each G-vector array             0.14 Mb     (   18866)
        G-vector shells                 0.00 Mb     (     578)
     Largest temporary arrays     est. size (Mb)     dimensions
        Auxiliary wavefunctions         0.26 Mb     (     473,   36)
        Each subspace H/S matrix        0.02 Mb     (      36,   36)
        Each <psi_i|beta_j> matrix      0.00 Mb     (      26,    9)

     The potential is recalculated from file :
     ./_ph0/GaAs.q_2/GaAs.save/charge-density.dat

     Starting wfc are   13 atomic wfcs
     Checking if some PAW data can be deallocated... 

     Band Structure Calculation
     Davidson diagonalization with overlap

     ethr =  5.56E-11,  avg # of iterations = 11.5

     total cpu time spent up to now is        7.6 secs

     End of band structure calculation

     Number of k-points >= 100: set verbosity='high' to print the bands.

     highest occupied level (ev):     7.6030

     Writing output data file GaAs.save

                                                                                

     bravais-lattice index     =            2
     lattice parameter (alat)  =      10.6867  a.u.
     unit-cell volume          =     305.1201 (a.u.)^3
     number of atoms/cell      =            2
     number of atomic types    =            2
     kinetic-energy cut-off    =      50.0000  Ry
     charge density cut-off    =     600.0000  Ry
     convergence threshold     =      1.0E-14
     beta                      =       0.3000
     number of iterations used =            4
     Exchange-correlation      =  SLA  PW   PBX  PBC ( 1  4  3  4 0 0)


     celldm(1)=   10.68670  celldm(2)=    0.00000  celldm(3)=    0.00000
     celldm(4)=    0.00000  celldm(5)=    0.00000  celldm(6)=    0.00000

     crystal axes: (cart. coord. in units of alat)
               a(1) = ( -0.5000  0.0000  0.5000 )  
               a(2) = (  0.0000  0.5000  0.5000 )  
               a(3) = ( -0.5000  0.5000  0.0000 )  

     reciprocal axes: (cart. coord. in units 2 pi/alat)
               b(1) = ( -1.0000 -1.0000  1.0000 )  
               b(2) = (  1.0000  1.0000  1.0000 )  
               b(3) = ( -1.0000  1.0000 -1.0000 )  


     Atoms inside the unit cell: 

     Cartesian axes

     site n.  atom      mass           positions (alat units)
        1     Ga  69.7230   tau(    1) = (    0.00000    0.00000    0.00000  )
        2     As  74.9216   tau(    2) = (    0.25000    0.25000    0.25000  )

     Computing dynamical matrix for 
                    q = (  -0.1250000   0.1250000  -0.1250000 )
 
      6 Sym.Ops. (no q -> -q+G )


     G cutoff = 1735.7163  (  18866 G-vectors)     FFT grid: ( 60, 60, 60)
     G cutoff =  578.5721  (   3598 G-vectors)  smooth grid: ( 36, 36, 36)
     number of k points=   240

     PseudoPot. # 1 for Ga read from file:
     ./Ga.pbe-dn-kjpaw_psl.0.2.upf
     MD5 check sum: f703b3f64ba021741ea9c16c693bf590
     Pseudo is Projector augmented-wave + core cor, Zval = 13.0
     Generated using "atomic" code by A. Dal Corso  v.5.0.99 svn rev. 10869
     Shape of augmentation charge: BESSEL
     Using radial grid of 1205 points,  6 beta functions with: 
                l(1) =   0
                l(2) =   0
                l(3) =   1
                l(4) =   1
                l(5) =   2
                l(6) =   2
     Q(r) pseudized with 0 coefficients 


     PseudoPot. # 2 for As read from file:
     ./As.pbe-n-kjpaw_psl.0.2.upf
     MD5 check sum: 076d91deeb42e24e5cc35739acc2a16c
     Pseudo is Projector augmented-wave + core cor, Zval =  5.0
     Generated using "atomic" code by A. Dal Corso  v.5.0.99 svn rev. 10869
     Shape of augmentation charge: PSQ
     Using radial grid of 1209 points,  4 beta functions with: 
                l(1) =   0
                l(2) =   0
                l(3) =   1
                l(4) =   1
     Q(r) pseudized with 0 coefficients 


     Mode symmetry, C_3v (3m)   point group:


     Atomic displacements:
     There are   4 irreducible representations

     Representation     1      1 modes -A_1  L_1  To be done

     Representation     2      1 modes -A_1  L_1  To be done

     Representation     3      2 modes -E    L_3  To be done

     Representation     4      2 modes -E    L_3  To be done



     Alpha used in Ewald sum =   2.8000
     PHONON       :  1m12.74s CPU     1m20.96s WALL



     Representation #  1 mode #   1

     Self-consistent Calculation

      iter #   1 total cpu time :    82.0 secs   av.it.:   5.2
      thresh= 1.000E-02 alpha_mix =  0.300 |ddv_scf|^2 =  1.380E-03

      iter #   2 total cpu time :    83.8 secs   av.it.:   7.5
      thresh= 3.714E-03 alpha_mix =  0.300 |ddv_scf|^2 =  5.924E-03

      iter #   3 total cpu time :    85.0 secs   av.it.:   6.1
      thresh= 7.697E-03 alpha_mix =  0.300 |ddv_scf|^2 =  2.107E-07

      iter #   4 total cpu time :    86.5 secs   av.it.:   8.3
      thresh= 4.591E-05 alpha_mix =  0.300 |ddv_scf|^2 =  7.681E-08

      iter #   5 total cpu time :    88.0 secs   av.it.:   9.0
      thresh= 2.771E-05 alpha_mix =  0.300 |ddv_scf|^2 =  3.966E-09

      iter #   6 total cpu time :    89.6 secs   av.it.:   8.4
      thresh= 6.298E-06 alpha_mix =  0.300 |ddv_scf|^2 =  1.487E-09

      iter #   7 total cpu time :    90.9 secs   av.it.:   8.8
      thresh= 3.856E-06 alpha_mix =  0.300 |ddv_scf|^2 =  1.411E-10

      iter #   8 total cpu time :    92.3 secs   av.it.:   8.0
      thresh= 1.188E-06 alpha_mix =  0.300 |ddv_scf|^2 =  1.045E-11

      iter #   9 total cpu time :    94.0 secs   av.it.:   9.8
      thresh= 3.233E-07 alpha_mix =  0.300 |ddv_scf|^2 =  5.516E-12

      iter #  10 total cpu time :    95.5 secs   av.it.:   9.7
      thresh= 2.349E-07 alpha_mix =  0.300 |ddv_scf|^2 =  7.916E-13

      iter #  11 total cpu time :    97.0 secs   av.it.:   9.6
      thresh= 8.897E-08 alpha_mix =  0.300 |ddv_scf|^2 =  2.976E-14

      iter #  12 total cpu time :    98.4 secs   av.it.:   9.9
      thresh= 1.725E-08 alpha_mix =  0.300 |ddv_scf|^2 =  2.772E-15

     End of self-consistent calculation

     Convergence has been achieved 


     Representation #  2 mode #   2

     Self-consistent Calculation

      iter #   1 total cpu time :   100.0 secs   av.it.:   7.1
      thresh= 1.000E-02 alpha_mix =  0.300 |ddv_scf|^2 =  7.735E-03

      iter #   2 total cpu time :   101.5 secs   av.it.:   7.7
      thresh= 8.795E-03 alpha_mix =  0.300 |ddv_scf|^2 =  3.259E-02

      iter #   3 total cpu time :   102.8 secs   av.it.:   6.7
      thresh= 1.000E-02 alpha_mix =  0.300 |ddv_scf|^2 =  1.589E-06

      iter #   4 total cpu time :   104.5 secs   av.it.:   9.7
      thresh= 1.261E-04 alpha_mix =  0.300 |ddv_scf|^2 =  3.563E-07

      iter #   5 total cpu time :   106.2 secs   av.it.:  10.3
      thresh= 5.969E-05 alpha_mix =  0.300 |ddv_scf|^2 =  4.300E-08

      iter #   6 total cpu time :   108.0 secs   av.it.:   8.8
      thresh= 2.074E-05 alpha_mix =  0.300 |ddv_scf|^2 =  3.786E-08

      iter #   7 total cpu time :   109.8 secs   av.it.:   8.9
      thresh= 1.946E-05 alpha_mix =  0.300 |ddv_scf|^2 =  8.373E-10

      iter #   8 total cpu time :   111.4 secs   av.it.:   9.1
      thresh= 2.894E-06 alpha_mix =  0.300 |ddv_scf|^2 =  3.362E-10

      iter #   9 total cpu time :   113.2 secs   av.it.:   9.2
      thresh= 1.834E-06 alpha_mix =  0.300 |ddv_scf|^2 =  1.638E-10

      iter #  10 total cpu time :   115.4 secs   av.it.:   9.0
      thresh= 1.280E-06 alpha_mix =  0.300 |ddv_scf|^2 =  5.451E-12

      iter #  11 total cpu time :   117.3 secs   av.it.:   9.7
      thresh= 2.335E-07 alpha_mix =  0.300 |ddv_scf|^2 =  8.012E-13

      iter #  12 total cpu time :   118.9 secs   av.it.:  10.2
      thresh= 8.951E-08 alpha_mix =  0.300 |ddv_scf|^2 =  5.948E-13

      iter #  13 total cpu time :   120.4 secs   av.it.:   9.3
      thresh= 7.712E-08 alpha_mix =  0.300 |ddv_scf|^2 =  1.144E-13

      iter #  14 total cpu time :   123.1 secs   av.it.:   9.3
      thresh= 3.382E-08 alpha_mix =  0.300 |ddv_scf|^2 =  1.492E-14

      iter #  15 total cpu time :   124.8 secs   av.it.:   9.7
      thresh= 1.221E-08 alpha_mix =  0.300 |ddv_scf|^2 =  1.358E-15

     End of self-consistent calculation

     Convergence has been achieved 


     Representation #  3 modes #   3  4

     Self-consistent Calculation

      iter #   1 total cpu time :   128.0 secs   av.it.:   4.6
      thresh= 1.000E-02 alpha_mix =  0.300 |ddv_scf|^2 =  2.042E-08

      iter #   2 total cpu time :   131.2 secs   av.it.:  10.5
      thresh= 1.429E-05 alpha_mix =  0.300 |ddv_scf|^2 =  6.700E-09

      iter #   3 total cpu time :   134.9 secs   av.it.:  11.1
      thresh= 8.185E-06 alpha_mix =  0.300 |ddv_scf|^2 =  3.214E-10

      iter #   4 total cpu time :   138.5 secs   av.it.:  11.2
      thresh= 1.793E-06 alpha_mix =  0.300 |ddv_scf|^2 =  7.065E-12

      iter #   5 total cpu time :   141.5 secs   av.it.:  10.8
      thresh= 2.658E-07 alpha_mix =  0.300 |ddv_scf|^2 =  1.861E-12

      iter #   6 total cpu time :   145.3 secs   av.it.:  11.5
      thresh= 1.364E-07 alpha_mix =  0.300 |ddv_scf|^2 =  3.679E-14

      iter #   7 total cpu time :   148.3 secs   av.it.:  11.7
      thresh= 1.918E-08 alpha_mix =  0.300 |ddv_scf|^2 =  1.527E-15

     End of self-consistent calculation

     Convergence has been achieved 


     Representation #  4 modes #   5  6

     Self-consistent Calculation

      iter #   1 total cpu time :   152.0 secs   av.it.:   6.8
      thresh= 1.000E-02 alpha_mix =  0.300 |ddv_scf|^2 =  1.389E-06

      iter #   2 total cpu time :   155.0 secs   av.it.:  10.9
      thresh= 1.179E-04 alpha_mix =  0.300 |ddv_scf|^2 =  3.761E-07

      iter #   3 total cpu time :   158.3 secs   av.it.:  11.9
      thresh= 6.132E-05 alpha_mix =  0.300 |ddv_scf|^2 =  6.429E-09

      iter #   4 total cpu time :   161.8 secs   av.it.:  11.3
      thresh= 8.018E-06 alpha_mix =  0.300 |ddv_scf|^2 =  3.182E-10

      iter #   5 total cpu time :   165.5 secs   av.it.:  10.4
      thresh= 1.784E-06 alpha_mix =  0.300 |ddv_scf|^2 =  3.470E-11

      iter #   6 total cpu time :   169.1 secs   av.it.:  11.1
      thresh= 5.890E-07 alpha_mix =  0.300 |ddv_scf|^2 =  2.126E-12

      iter #   7 total cpu time :   172.3 secs   av.it.:  11.6
      thresh= 1.458E-07 alpha_mix =  0.300 |ddv_scf|^2 =  3.724E-14

      iter #   8 total cpu time :   175.9 secs   av.it.:   9.7
      thresh= 1.930E-08 alpha_mix =  0.300 |ddv_scf|^2 =  1.790E-14

      iter #   9 total cpu time :   179.3 secs   av.it.:  11.2
      thresh= 1.338E-08 alpha_mix =  0.300 |ddv_scf|^2 =  3.870E-16

     End of self-consistent calculation

     Convergence has been achieved 
 
     Number of q in the star =    4
     List of q in the star:
          1  -0.125000000   0.125000000  -0.125000000
          2   0.125000000  -0.125000000  -0.125000000
          3  -0.125000000  -0.125000000   0.125000000
          4   0.125000000   0.125000000   0.125000000
     In addition there is the -q list: 
          1   0.125000000  -0.125000000   0.125000000
          2  -0.125000000   0.125000000   0.125000000
          3   0.125000000   0.125000000  -0.125000000
          4  -0.125000000  -0.125000000  -0.125000000

     Diagonalizing the dynamical matrix

     q = (   -0.125000000   0.125000000  -0.125000000 ) 

 **************************************************************************
     freq (    1) =       0.880953 [THz] =      29.385428 [cm-1]
     freq (    2) =       0.880953 [THz] =      29.385428 [cm-1]
     freq (    3) =       2.019134 [THz] =      67.351066 [cm-1]
     freq (    4) =       7.996187 [THz] =     266.724095 [cm-1]
     freq (    5) =       7.996187 [THz] =     266.724095 [cm-1]
     freq (    6) =       8.550458 [THz] =     285.212574 [cm-1]
 **************************************************************************

     Mode symmetry, C_3v (3m)   point group:

     freq (  1 -  2) =         29.4  [cm-1]   --> E    L_3           
     freq (  3 -  3) =         67.4  [cm-1]   --> A_1  L_1           
     freq (  4 -  5) =        266.7  [cm-1]   --> E    L_3           
     freq (  6 -  6) =        285.2  [cm-1]   --> A_1  L_1           

     Calculation of q =   -0.2500000   0.2500000  -0.2500000
 
     Parallelization info
     --------------------
     sticks:   dense  smooth     PW     G-vecs:    dense   smooth      PW
     Min         586     192     63                18861     3584     670
     Max         587     193     64                18866     3594     673
     Sum        2347     769    253                75457    14361    2685
 


     bravais-lattice index     =            2
     lattice parameter (alat)  =      10.6867  a.u.
     unit-cell volume          =     305.1201 (a.u.)^3
     number of atoms/cell      =            2
     number of atomic types    =            2
     number of electrons       =        18.00
     number of Kohn-Sham states=            9
     kinetic-energy cutoff     =      50.0000  Ry
     charge density cutoff     =     600.0000  Ry
     Exchange-correlation      =  SLA  PW   PBX  PBC ( 1  4  3  4 0 0)

     celldm(1)=  10.686700  celldm(2)=   0.000000  celldm(3)=   0.000000
     celldm(4)=   0.000000  celldm(5)=   0.000000  celldm(6)=   0.000000

     crystal axes: (cart. coord. in units of alat)
               a(1) = (  -0.500000   0.000000   0.500000 )  
               a(2) = (   0.000000   0.500000   0.500000 )  
               a(3) = (  -0.500000   0.500000   0.000000 )  

     reciprocal axes: (cart. coord. in units 2 pi/alat)
               b(1) = ( -1.000000 -1.000000  1.000000 )  
               b(2) = (  1.000000  1.000000  1.000000 )  
               b(3) = ( -1.000000  1.000000 -1.000000 )  


     PseudoPot. # 1 for Ga read from file:
     ./Ga.pbe-dn-kjpaw_psl.0.2.upf
     MD5 check sum: f703b3f64ba021741ea9c16c693bf590
     Pseudo is Projector augmented-wave + core cor, Zval = 13.0
     Generated using "atomic" code by A. Dal Corso  v.5.0.99 svn rev. 10869
     Shape of augmentation charge: BESSEL
     Using radial grid of 1205 points,  6 beta functions with: 
                l(1) =   0
                l(2) =   0
                l(3) =   1
                l(4) =   1
                l(5) =   2
                l(6) =   2
     Q(r) pseudized with 0 coefficients 


     PseudoPot. # 2 for As read from file:
     ./As.pbe-n-kjpaw_psl.0.2.upf
     MD5 check sum: 076d91deeb42e24e5cc35739acc2a16c
     Pseudo is Projector augmented-wave + core cor, Zval =  5.0
     Generated using "atomic" code by A. Dal Corso  v.5.0.99 svn rev. 10869
     Shape of augmentation charge: PSQ
     Using radial grid of 1209 points,  4 beta functions with: 
                l(1) =   0
                l(2) =   0
                l(3) =   1
                l(4) =   1
     Q(r) pseudized with 0 coefficients 


     atomic species   valence    mass     pseudopotential
        Ga            13.00    69.72300     Ga( 1.00)
        As             5.00    74.92159     As( 1.00)

     24 Sym. Ops. (no inversion) found



   Cartesian axes

     site n.     atom                  positions (alat units)
         1           Ga  tau(   1) = (   0.0000000   0.0000000   0.0000000  )
         2           As  tau(   2) = (   0.2500000   0.2500000   0.2500000  )

     number of k points=   240

     Number of k-points >= 100: set verbosity='high' to print them.

     Dense  grid:    75457 G-vectors     FFT dimensions: (  60,  60,  60)

     Smooth grid:    14361 G-vectors     FFT dimensions: (  36,  36,  36)

     Largest allocated arrays     est. size (Mb)     dimensions
        Kohn-Sham Wavefunctions         0.06 Mb     (     467,    9)
        NL pseudopotentials             0.19 Mb     (     467,   26)
        Each V/rho on FFT grid          0.82 Mb     (   54000)
        Each G-vector array             0.14 Mb     (   18866)
        G-vector shells                 0.00 Mb     (     578)
     Largest temporary arrays     est. size (Mb)     dimensions
        Auxiliary wavefunctions         0.26 Mb     (     467,   36)
        Each subspace H/S matrix        0.02 Mb     (      36,   36)
        Each <psi_i|beta_j> matrix      0.00 Mb     (      26,    9)

     The potential is recalculated from file :
     ./_ph0/GaAs.q_3/GaAs.save/charge-density.dat

     Starting wfc are   13 atomic wfcs
     Checking if some PAW data can be deallocated... 

     Band Structure Calculation
     Davidson diagonalization with overlap

     ethr =  5.56E-11,  avg # of iterations = 11.5

     total cpu time spent up to now is       15.3 secs

     End of band structure calculation

     Number of k-points >= 100: set verbosity='high' to print the bands.

     highest occupied level (ev):     7.6030

     Writing output data file GaAs.save

                                                                                

     bravais-lattice index     =            2
     lattice parameter (alat)  =      10.6867  a.u.
     unit-cell volume          =     305.1201 (a.u.)^3
     number of atoms/cell      =            2
     number of atomic types    =            2
     kinetic-energy cut-off    =      50.0000  Ry
     charge density cut-off    =     600.0000  Ry
     convergence threshold     =      1.0E-14
     beta                      =       0.3000
     number of iterations used =            4
     Exchange-correlation      =  SLA  PW   PBX  PBC ( 1  4  3  4 0 0)


     celldm(1)=   10.68670  celldm(2)=    0.00000  celldm(3)=    0.00000
     celldm(4)=    0.00000  celldm(5)=    0.00000  celldm(6)=    0.00000

     crystal axes: (cart. coord. in units of alat)
               a(1) = ( -0.5000  0.0000  0.5000 )  
               a(2) = (  0.0000  0.5000  0.5000 )  
               a(3) = ( -0.5000  0.5000  0.0000 )  

     reciprocal axes: (cart. coord. in units 2 pi/alat)
               b(1) = ( -1.0000 -1.0000  1.0000 )  
               b(2) = (  1.0000  1.0000  1.0000 )  
               b(3) = ( -1.0000  1.0000 -1.0000 )  


     Atoms inside the unit cell: 

     Cartesian axes

     site n.  atom      mass           positions (alat units)
        1     Ga  69.7230   tau(    1) = (    0.00000    0.00000    0.00000  )
        2     As  74.9216   tau(    2) = (    0.25000    0.25000    0.25000  )

     Computing dynamical matrix for 
                    q = (  -0.2500000   0.2500000  -0.2500000 )
 
      6 Sym.Ops. (no q -> -q+G )


     G cutoff = 1735.7163  (  18866 G-vectors)     FFT grid: ( 60, 60, 60)
     G cutoff =  578.5721  (   3593 G-vectors)  smooth grid: ( 36, 36, 36)
     number of k points=   240

     PseudoPot. # 1 for Ga read from file:
     ./Ga.pbe-dn-kjpaw_psl.0.2.upf
     MD5 check sum: f703b3f64ba021741ea9c16c693bf590
     Pseudo is Projector augmented-wave + core cor, Zval = 13.0
     Generated using "atomic" code by A. Dal Corso  v.5.0.99 svn rev. 10869
     Shape of augmentation charge: BESSEL
     Using radial grid of 1205 points,  6 beta functions with: 
                l(1) =   0
                l(2) =   0
                l(3) =   1
                l(4) =   1
                l(5) =   2
                l(6) =   2
     Q(r) pseudized with 0 coefficients 


     PseudoPot. # 2 for As read from file:
     ./As.pbe-n-kjpaw_psl.0.2.upf
     MD5 check sum: 076d91deeb42e24e5cc35739acc2a16c
     Pseudo is Projector augmented-wave + core cor, Zval =  5.0
     Generated using "atomic" code by A. Dal Corso  v.5.0.99 svn rev. 10869
     Shape of augmentation charge: PSQ
     Using radial grid of 1209 points,  4 beta functions with: 
                l(1) =   0
                l(2) =   0
                l(3) =   1
                l(4) =   1
     Q(r) pseudized with 0 coefficients 


     Mode symmetry, C_3v (3m)   point group:


     Atomic displacements:
     There are   4 irreducible representations

     Representation     1      1 modes -A_1  L_1  To be done

     Representation     2      1 modes -A_1  L_1  To be done

     Representation     3      2 modes -E    L_3  To be done

     Representation     4      2 modes -E    L_3  To be done



     Alpha used in Ewald sum =   2.8000
     PHONON       :  2m55.51s CPU     3m12.38s WALL



     Representation #  1 mode #   1

     Self-consistent Calculation

      iter #   1 total cpu time :   193.5 secs   av.it.:   5.1
      thresh= 1.000E-02 alpha_mix =  0.300 |ddv_scf|^2 =  1.216E-04

      iter #   2 total cpu time :   194.8 secs   av.it.:   8.2
      thresh= 1.103E-03 alpha_mix =  0.300 |ddv_scf|^2 =  1.152E-04

      iter #   3 total cpu time :   196.1 secs   av.it.:   7.7
      thresh= 1.073E-03 alpha_mix =  0.300 |ddv_scf|^2 =  3.207E-08

      iter #   4 total cpu time :   197.6 secs   av.it.:   9.6
      thresh= 1.791E-05 alpha_mix =  0.300 |ddv_scf|^2 =  4.786E-09

      iter #   5 total cpu time :   199.1 secs   av.it.:   9.8
      thresh= 6.918E-06 alpha_mix =  0.300 |ddv_scf|^2 =  6.775E-10

      iter #   6 total cpu time :   200.5 secs   av.it.:  10.3
      thresh= 2.603E-06 alpha_mix =  0.300 |ddv_scf|^2 =  1.930E-11

      iter #   7 total cpu time :   202.3 secs   av.it.:  10.4
      thresh= 4.393E-07 alpha_mix =  0.300 |ddv_scf|^2 =  2.757E-12

      iter #   8 total cpu time :   204.0 secs   av.it.:   9.7
      thresh= 1.660E-07 alpha_mix =  0.300 |ddv_scf|^2 =  1.829E-12

      iter #   9 total cpu time :   205.6 secs   av.it.:   9.6
      thresh= 1.353E-07 alpha_mix =  0.300 |ddv_scf|^2 =  1.526E-13

      iter #  10 total cpu time :   207.6 secs   av.it.:  10.4
      thresh= 3.907E-08 alpha_mix =  0.300 |ddv_scf|^2 =  3.786E-14

      iter #  11 total cpu time :   208.9 secs   av.it.:   9.4
      thresh= 1.946E-08 alpha_mix =  0.300 |ddv_scf|^2 =  9.275E-15

     End of self-consistent calculation

     Convergence has been achieved 


     Representation #  2 mode #   2

     Self-consistent Calculation

      iter #   1 total cpu time :   210.4 secs   av.it.:   7.1
      thresh= 1.000E-02 alpha_mix =  0.300 |ddv_scf|^2 =  7.749E-04

      iter #   2 total cpu time :   212.4 secs   av.it.:   8.6
      thresh= 2.784E-03 alpha_mix =  0.300 |ddv_scf|^2 =  7.173E-04

      iter #   3 total cpu time :   213.8 secs   av.it.:   7.4
      thresh= 2.678E-03 alpha_mix =  0.300 |ddv_scf|^2 =  1.065E-06

      iter #   4 total cpu time :   216.0 secs   av.it.:  10.3
      thresh= 1.032E-04 alpha_mix =  0.300 |ddv_scf|^2 =  4.947E-08

      iter #   5 total cpu time :   217.7 secs   av.it.:  10.3
      thresh= 2.224E-05 alpha_mix =  0.300 |ddv_scf|^2 =  1.098E-08

      iter #   6 total cpu time :   219.6 secs   av.it.:  10.4
      thresh= 1.048E-05 alpha_mix =  0.300 |ddv_scf|^2 =  1.139E-09

      iter #   7 total cpu time :   221.4 secs   av.it.:  10.0
      thresh= 3.375E-06 alpha_mix =  0.300 |ddv_scf|^2 =  3.389E-10

      iter #   8 total cpu time :   223.1 secs   av.it.:   9.0
      thresh= 1.841E-06 alpha_mix =  0.300 |ddv_scf|^2 =  2.636E-11

      iter #   9 total cpu time :   225.1 secs   av.it.:   9.7
      thresh= 5.134E-07 alpha_mix =  0.300 |ddv_scf|^2 =  1.143E-11

      iter #  10 total cpu time :   227.0 secs   av.it.:  10.1
      thresh= 3.381E-07 alpha_mix =  0.300 |ddv_scf|^2 =  3.303E-12

      iter #  11 total cpu time :   228.7 secs   av.it.:   9.7
      thresh= 1.817E-07 alpha_mix =  0.300 |ddv_scf|^2 =  3.265E-13

      iter #  12 total cpu time :   230.5 secs   av.it.:  10.3
      thresh= 5.714E-08 alpha_mix =  0.300 |ddv_scf|^2 =  1.150E-13

      iter #  13 total cpu time :   232.3 secs   av.it.:   9.8
      thresh= 3.391E-08 alpha_mix =  0.300 |ddv_scf|^2 =  2.816E-14

      iter #  14 total cpu time :   233.9 secs   av.it.:   9.9
      thresh= 1.678E-08 alpha_mix =  0.300 |ddv_scf|^2 =  4.632E-15

     End of self-consistent calculation

     Convergence has been achieved 


     Representation #  3 modes #   3  4

     Self-consistent Calculation

      iter #   1 total cpu time :   236.5 secs   av.it.:   4.7
      thresh= 1.000E-02 alpha_mix =  0.300 |ddv_scf|^2 =  2.448E-08

      iter #   2 total cpu time :   239.7 secs   av.it.:  10.5
      thresh= 1.565E-05 alpha_mix =  0.300 |ddv_scf|^2 =  7.418E-09

      iter #   3 total cpu time :   244.1 secs   av.it.:  11.2
      thresh= 8.613E-06 alpha_mix =  0.300 |ddv_scf|^2 =  3.919E-10

      iter #   4 total cpu time :   247.3 secs   av.it.:  11.3
      thresh= 1.980E-06 alpha_mix =  0.300 |ddv_scf|^2 =  7.331E-12

      iter #   5 total cpu time :   250.7 secs   av.it.:  10.7
      thresh= 2.708E-07 alpha_mix =  0.300 |ddv_scf|^2 =  1.965E-12

      iter #   6 total cpu time :   254.0 secs   av.it.:  11.6
      thresh= 1.402E-07 alpha_mix =  0.300 |ddv_scf|^2 =  4.275E-14

      iter #   7 total cpu time :   257.2 secs   av.it.:  11.7
      thresh= 2.068E-08 alpha_mix =  0.300 |ddv_scf|^2 =  1.650E-15

     End of self-consistent calculation

     Convergence has been achieved 


     Representation #  4 modes #   5  6

     Self-consistent Calculation

      iter #   1 total cpu time :   260.6 secs   av.it.:   6.8
      thresh= 1.000E-02 alpha_mix =  0.300 |ddv_scf|^2 =  1.501E-06

      iter #   2 total cpu time :   263.7 secs   av.it.:  11.0
      thresh= 1.225E-04 alpha_mix =  0.300 |ddv_scf|^2 =  3.846E-07

      iter #   3 total cpu time :   266.6 secs   av.it.:  11.9
      thresh= 6.202E-05 alpha_mix =  0.300 |ddv_scf|^2 =  7.869E-09

      iter #   4 total cpu time :   270.1 secs   av.it.:  11.5
      thresh= 8.871E-06 alpha_mix =  0.300 |ddv_scf|^2 =  5.709E-10

      iter #   5 total cpu time :   273.5 secs   av.it.:  10.7
      thresh= 2.389E-06 alpha_mix =  0.300 |ddv_scf|^2 =  4.142E-11

      iter #   6 total cpu time :   276.8 secs   av.it.:  10.9
      thresh= 6.436E-07 alpha_mix =  0.300 |ddv_scf|^2 =  2.441E-12

      iter #   7 total cpu time :   280.9 secs   av.it.:  11.7
      thresh= 1.563E-07 alpha_mix =  0.300 |ddv_scf|^2 =  4.379E-14

      iter #   8 total cpu time :   284.2 secs   av.it.:  10.1
      thresh= 2.092E-08 alpha_mix =  0.300 |ddv_scf|^2 =  2.023E-14

      iter #   9 total cpu time :   287.4 secs   av.it.:  11.2
      thresh= 1.422E-08 alpha_mix =  0.300 |ddv_scf|^2 =  7.215E-16

     End of self-consistent calculation

     Convergence has been achieved 
 
     Number of q in the star =    4
     List of q in the star:
          1  -0.250000000   0.250000000  -0.250000000
          2   0.250000000  -0.250000000  -0.250000000
          3  -0.250000000  -0.250000000   0.250000000
          4   0.250000000   0.250000000   0.250000000
     In addition there is the -q list: 
          1   0.250000000  -0.250000000   0.250000000
          2  -0.250000000   0.250000000   0.250000000
          3   0.250000000   0.250000000  -0.250000000
          4  -0.250000000  -0.250000000  -0.250000000

     Diagonalizing the dynamical matrix

     q = (   -0.250000000   0.250000000  -0.250000000 ) 

 **************************************************************************
     freq (    1) =       1.422505 [THz] =      47.449665 [cm-1]
     freq (    2) =       1.422505 [THz] =      47.449665 [cm-1]
     freq (    3) =       3.863173 [THz] =     128.861588 [cm-1]
     freq (    4) =       7.900024 [THz] =     263.516423 [cm-1]
     freq (    5) =       7.900024 [THz] =     263.516423 [cm-1]
     freq (    6) =       8.197697 [THz] =     273.445741 [cm-1]
 **************************************************************************

     Mode symmetry, C_3v (3m)   point group:

     freq (  1 -  2) =         47.4  [cm-1]   --> E    L_3           
     freq (  3 -  3) =        128.9  [cm-1]   --> A_1  L_1           
     freq (  4 -  5) =        263.5  [cm-1]   --> E    L_3           
     freq (  6 -  6) =        273.4  [cm-1]   --> A_1  L_1           

     Calculation of q =   -0.3750000   0.3750000  -0.3750000
 
     Parallelization info
     --------------------
     sticks:   dense  smooth     PW     G-vecs:    dense   smooth      PW
     Min         586     192     63                18861     3584     684
     Max         587     193     64                18866     3602     688
     Sum        2347     769    253                75457    14361    2741
 


     bravais-lattice index     =            2
     lattice parameter (alat)  =      10.6867  a.u.
     unit-cell volume          =     305.1201 (a.u.)^3
     number of atoms/cell      =            2
     number of atomic types    =            2
     number of electrons       =        18.00
     number of Kohn-Sham states=            9
     kinetic-energy cutoff     =      50.0000  Ry
     charge density cutoff     =     600.0000  Ry
     Exchange-correlation      =  SLA  PW   PBX  PBC ( 1  4  3  4 0 0)

     celldm(1)=  10.686700  celldm(2)=   0.000000  celldm(3)=   0.000000
     celldm(4)=   0.000000  celldm(5)=   0.000000  celldm(6)=   0.000000

     crystal axes: (cart. coord. in units of alat)
               a(1) = (  -0.500000   0.000000   0.500000 )  
               a(2) = (   0.000000   0.500000   0.500000 )  
               a(3) = (  -0.500000   0.500000   0.000000 )  

     reciprocal axes: (cart. coord. in units 2 pi/alat)
               b(1) = ( -1.000000 -1.000000  1.000000 )  
               b(2) = (  1.000000  1.000000  1.000000 )  
               b(3) = ( -1.000000  1.000000 -1.000000 )  


     PseudoPot. # 1 for Ga read from file:
     ./Ga.pbe-dn-kjpaw_psl.0.2.upf
     MD5 check sum: f703b3f64ba021741ea9c16c693bf590
     Pseudo is Projector augmented-wave + core cor, Zval = 13.0
     Generated using "atomic" code by A. Dal Corso  v.5.0.99 svn rev. 10869
     Shape of augmentation charge: BESSEL
     Using radial grid of 1205 points,  6 beta functions with: 
                l(1) =   0
                l(2) =   0
                l(3) =   1
                l(4) =   1
                l(5) =   2
                l(6) =   2
     Q(r) pseudized with 0 coefficients 


     PseudoPot. # 2 for As read from file:
     ./As.pbe-n-kjpaw_psl.0.2.upf
     MD5 check sum: 076d91deeb42e24e5cc35739acc2a16c
     Pseudo is Projector augmented-wave + core cor, Zval =  5.0
     Generated using "atomic" code by A. Dal Corso  v.5.0.99 svn rev. 10869
     Shape of augmentation charge: PSQ
     Using radial grid of 1209 points,  4 beta functions with: 
                l(1) =   0
                l(2) =   0
                l(3) =   1
                l(4) =   1
     Q(r) pseudized with 0 coefficients 


     atomic species   valence    mass     pseudopotential
        Ga            13.00    69.72300     Ga( 1.00)
        As             5.00    74.92159     As( 1.00)

     24 Sym. Ops. (no inversion) found



   Cartesian axes

     site n.     atom                  positions (alat units)
         1           Ga  tau(   1) = (   0.0000000   0.0000000   0.0000000  )
         2           As  tau(   2) = (   0.2500000   0.2500000   0.2500000  )

     number of k points=   240

     Number of k-points >= 100: set verbosity='high' to print them.

     Dense  grid:    75457 G-vectors     FFT dimensions: (  60,  60,  60)

     Smooth grid:    14361 G-vectors     FFT dimensions: (  36,  36,  36)

     Largest allocated arrays     est. size (Mb)     dimensions
        Kohn-Sham Wavefunctions         0.06 Mb     (     465,    9)
        NL pseudopotentials             0.18 Mb     (     465,   26)
        Each V/rho on FFT grid          0.82 Mb     (   54000)
        Each G-vector array             0.14 Mb     (   18866)
        G-vector shells                 0.00 Mb     (     580)
     Largest temporary arrays     est. size (Mb)     dimensions
        Auxiliary wavefunctions         0.26 Mb     (     465,   36)
        Each subspace H/S matrix        0.02 Mb     (      36,   36)
        Each <psi_i|beta_j> matrix      0.00 Mb     (      26,    9)

     The potential is recalculated from file :
     ./_ph0/GaAs.q_4/GaAs.save/charge-density.dat

     Starting wfc are   13 atomic wfcs
     Checking if some PAW data can be deallocated... 

     Band Structure Calculation
     Davidson diagonalization with overlap

     ethr =  5.56E-11,  avg # of iterations = 11.5

     total cpu time spent up to now is       20.6 secs

     End of band structure calculation

     Number of k-points >= 100: set verbosity='high' to print the bands.

     highest occupied level (ev):     7.6030

     Writing output data file GaAs.save

                                                                                

     bravais-lattice index     =            2
     lattice parameter (alat)  =      10.6867  a.u.
     unit-cell volume          =     305.1201 (a.u.)^3
     number of atoms/cell      =            2
     number of atomic types    =            2
     kinetic-energy cut-off    =      50.0000  Ry
     charge density cut-off    =     600.0000  Ry
     convergence threshold     =      1.0E-14
     beta                      =       0.3000
     number of iterations used =            4
     Exchange-correlation      =  SLA  PW   PBX  PBC ( 1  4  3  4 0 0)


     celldm(1)=   10.68670  celldm(2)=    0.00000  celldm(3)=    0.00000
     celldm(4)=    0.00000  celldm(5)=    0.00000  celldm(6)=    0.00000

     crystal axes: (cart. coord. in units of alat)
               a(1) = ( -0.5000  0.0000  0.5000 )  
               a(2) = (  0.0000  0.5000  0.5000 )  
               a(3) = ( -0.5000  0.5000  0.0000 )  

     reciprocal axes: (cart. coord. in units 2 pi/alat)
               b(1) = ( -1.0000 -1.0000  1.0000 )  
               b(2) = (  1.0000  1.0000  1.0000 )  
               b(3) = ( -1.0000  1.0000 -1.0000 )  


     Atoms inside the unit cell: 

     Cartesian axes

     site n.  atom      mass           positions (alat units)
        1     Ga  69.7230   tau(    1) = (    0.00000    0.00000    0.00000  )
        2     As  74.9216   tau(    2) = (    0.25000    0.25000    0.25000  )

     Computing dynamical matrix for 
                    q = (  -0.3750000   0.3750000  -0.3750000 )
 
      6 Sym.Ops. (no q -> -q+G )


     G cutoff = 1735.7163  (  18866 G-vectors)     FFT grid: ( 60, 60, 60)
     G cutoff =  578.5721  (   3602 G-vectors)  smooth grid: ( 36, 36, 36)
     number of k points=   240

     PseudoPot. # 1 for Ga read from file:
     ./Ga.pbe-dn-kjpaw_psl.0.2.upf
     MD5 check sum: f703b3f64ba021741ea9c16c693bf590
     Pseudo is Projector augmented-wave + core cor, Zval = 13.0
     Generated using "atomic" code by A. Dal Corso  v.5.0.99 svn rev. 10869
     Shape of augmentation charge: BESSEL
     Using radial grid of 1205 points,  6 beta functions with: 
                l(1) =   0
                l(2) =   0
                l(3) =   1
                l(4) =   1
                l(5) =   2
                l(6) =   2
     Q(r) pseudized with 0 coefficients 


     PseudoPot. # 2 for As read from file:
     ./As.pbe-n-kjpaw_psl.0.2.upf
     MD5 check sum: 076d91deeb42e24e5cc35739acc2a16c
     Pseudo is Projector augmented-wave + core cor, Zval =  5.0
     Generated using "atomic" code by A. Dal Corso  v.5.0.99 svn rev. 10869
     Shape of augmentation charge: PSQ
     Using radial grid of 1209 points,  4 beta functions with: 
                l(1) =   0
                l(2) =   0
                l(3) =   1
                l(4) =   1
     Q(r) pseudized with 0 coefficients 


     Mode symmetry, C_3v (3m)   point group:


     Atomic displacements:
     There are   4 irreducible representations

     Representation     1      1 modes -A_1  L_1  To be done

     Representation     2      1 modes -A_1  L_1  To be done

     Representation     3      2 modes -E    L_3  To be done

     Representation     4      2 modes -E    L_3  To be done



     Alpha used in Ewald sum =   2.8000
     PHONON       :  4m35.11s CPU     4m59.18s WALL



     Representation #  1 mode #   1

     Self-consistent Calculation

      iter #   1 total cpu time :   300.3 secs   av.it.:   5.1
      thresh= 1.000E-02 alpha_mix =  0.300 |ddv_scf|^2 =  2.128E-05

      iter #   2 total cpu time :   301.6 secs   av.it.:   8.9
      thresh= 4.613E-04 alpha_mix =  0.300 |ddv_scf|^2 =  2.835E-06

      iter #   3 total cpu time :   302.9 secs   av.it.:   8.7
      thresh= 1.684E-04 alpha_mix =  0.300 |ddv_scf|^2 =  1.470E-08

      iter #   4 total cpu time :   304.4 secs   av.it.:   9.9
      thresh= 1.212E-05 alpha_mix =  0.300 |ddv_scf|^2 =  2.170E-09

      iter #   5 total cpu time :   306.0 secs   av.it.:  10.3
      thresh= 4.658E-06 alpha_mix =  0.300 |ddv_scf|^2 =  8.183E-11

      iter #   6 total cpu time :   307.5 secs   av.it.:  10.2
      thresh= 9.046E-07 alpha_mix =  0.300 |ddv_scf|^2 =  1.936E-11

      iter #   7 total cpu time :   309.2 secs   av.it.:  10.6
      thresh= 4.400E-07 alpha_mix =  0.300 |ddv_scf|^2 =  9.503E-13

      iter #   8 total cpu time :   311.7 secs   av.it.:  10.4
      thresh= 9.748E-08 alpha_mix =  0.300 |ddv_scf|^2 =  1.902E-13

      iter #   9 total cpu time :   313.5 secs   av.it.:   9.9
      thresh= 4.361E-08 alpha_mix =  0.300 |ddv_scf|^2 =  2.814E-14

      iter #  10 total cpu time :   315.0 secs   av.it.:  10.5
      thresh= 1.677E-08 alpha_mix =  0.300 |ddv_scf|^2 =  2.343E-15

     End of self-consistent calculation

     Convergence has been achieved 


     Representation #  2 mode #   2

     Self-consistent Calculation

      iter #   1 total cpu time :   316.8 secs   av.it.:   7.1
      thresh= 1.000E-02 alpha_mix =  0.300 |ddv_scf|^2 =  1.667E-04

      iter #   2 total cpu time :   318.3 secs   av.it.:   9.0
      thresh= 1.291E-03 alpha_mix =  0.300 |ddv_scf|^2 =  2.271E-05

      iter #   3 total cpu time :   319.8 secs   av.it.:   8.4
      thresh= 4.766E-04 alpha_mix =  0.300 |ddv_scf|^2 =  6.620E-07

      iter #   4 total cpu time :   321.7 secs   av.it.:  10.3
      thresh= 8.136E-05 alpha_mix =  0.300 |ddv_scf|^2 =  5.023E-08

      iter #   5 total cpu time :   323.9 secs   av.it.:  10.7
      thresh= 2.241E-05 alpha_mix =  0.300 |ddv_scf|^2 =  4.588E-09

      iter #   6 total cpu time :   325.7 secs   av.it.:  10.0
      thresh= 6.774E-06 alpha_mix =  0.300 |ddv_scf|^2 =  5.264E-10

      iter #   7 total cpu time :   327.6 secs   av.it.:   9.9
      thresh= 2.294E-06 alpha_mix =  0.300 |ddv_scf|^2 =  7.281E-11

      iter #   8 total cpu time :   329.2 secs   av.it.:   9.9
      thresh= 8.533E-07 alpha_mix =  0.300 |ddv_scf|^2 =  5.399E-12

      iter #   9 total cpu time :   332.0 secs   av.it.:  10.5
      thresh= 2.324E-07 alpha_mix =  0.300 |ddv_scf|^2 =  5.669E-13

      iter #  10 total cpu time :   334.2 secs   av.it.:   9.9
      thresh= 7.529E-08 alpha_mix =  0.300 |ddv_scf|^2 =  1.683E-13

      iter #  11 total cpu time :   336.5 secs   av.it.:   9.3
      thresh= 4.103E-08 alpha_mix =  0.300 |ddv_scf|^2 =  5.586E-14

      iter #  12 total cpu time :   338.2 secs   av.it.:  10.4
      thresh= 2.363E-08 alpha_mix =  0.300 |ddv_scf|^2 =  4.022E-15

     End of self-consistent calculation

     Convergence has been achieved 


     Representation #  3 modes #   3  4

     Self-consistent Calculation

      iter #   1 total cpu time :   341.2 secs   av.it.:   4.7
      thresh= 1.000E-02 alpha_mix =  0.300 |ddv_scf|^2 =  2.829E-08

      iter #   2 total cpu time :   344.7 secs   av.it.:  10.5
      thresh= 1.682E-05 alpha_mix =  0.300 |ddv_scf|^2 =  8.061E-09

      iter #   3 total cpu time :   348.3 secs   av.it.:  11.1
      thresh= 8.978E-06 alpha_mix =  0.300 |ddv_scf|^2 =  4.369E-10

      iter #   4 total cpu time :   351.8 secs   av.it.:  11.3
      thresh= 2.090E-06 alpha_mix =  0.300 |ddv_scf|^2 =  8.048E-12

      iter #   5 total cpu time :   355.0 secs   av.it.:  10.8
      thresh= 2.837E-07 alpha_mix =  0.300 |ddv_scf|^2 =  1.969E-12

      iter #   6 total cpu time :   358.6 secs   av.it.:  11.6
      thresh= 1.403E-07 alpha_mix =  0.300 |ddv_scf|^2 =  5.424E-14

      iter #   7 total cpu time :   362.1 secs   av.it.:  11.7
      thresh= 2.329E-08 alpha_mix =  0.300 |ddv_scf|^2 =  1.898E-15

     End of self-consistent calculation

     Convergence has been achieved 


     Representation #  4 modes #   5  6

     Self-consistent Calculation

      iter #   1 total cpu time :   365.3 secs   av.it.:   6.9
      thresh= 1.000E-02 alpha_mix =  0.300 |ddv_scf|^2 =  1.600E-06

      iter #   2 total cpu time :   368.9 secs   av.it.:  10.9
      thresh= 1.265E-04 alpha_mix =  0.300 |ddv_scf|^2 =  3.922E-07

      iter #   3 total cpu time :   371.9 secs   av.it.:  11.9
      thresh= 6.262E-05 alpha_mix =  0.300 |ddv_scf|^2 =  8.933E-09

      iter #   4 total cpu time :   375.4 secs   av.it.:  11.6
      thresh= 9.451E-06 alpha_mix =  0.300 |ddv_scf|^2 =  6.705E-10

      iter #   5 total cpu time :   378.8 secs   av.it.:  10.8
      thresh= 2.589E-06 alpha_mix =  0.300 |ddv_scf|^2 =  4.533E-11

      iter #   6 total cpu time :   381.9 secs   av.it.:  10.8
      thresh= 6.732E-07 alpha_mix =  0.300 |ddv_scf|^2 =  2.942E-12

      iter #   7 total cpu time :   385.3 secs   av.it.:  11.7
      thresh= 1.715E-07 alpha_mix =  0.300 |ddv_scf|^2 =  5.897E-14

      iter #   8 total cpu time :   388.2 secs   av.it.:  10.3
      thresh= 2.428E-08 alpha_mix =  0.300 |ddv_scf|^2 =  2.627E-14

      iter #   9 total cpu time :   391.3 secs   av.it.:  11.2
      thresh= 1.621E-08 alpha_mix =  0.300 |ddv_scf|^2 =  1.227E-15

     End of self-consistent calculation

     Convergence has been achieved 
 
     Number of q in the star =    4
     List of q in the star:
          1  -0.375000000   0.375000000  -0.375000000
          2   0.375000000  -0.375000000  -0.375000000
          3  -0.375000000  -0.375000000   0.375000000
          4   0.375000000   0.375000000   0.375000000
     In addition there is the -q list: 
          1   0.375000000  -0.375000000   0.375000000
          2  -0.375000000   0.375000000   0.375000000
          3   0.375000000   0.375000000  -0.375000000
          4  -0.375000000  -0.375000000  -0.375000000

     Diagonalizing the dynamical matrix

     q = (   -0.375000000   0.375000000  -0.375000000 ) 

 **************************************************************************
     freq (    1) =       1.608056 [THz] =      53.638979 [cm-1]
     freq (    2) =       1.608056 [THz] =      53.638979 [cm-1]
     freq (    3) =       5.343970 [THz] =     178.255646 [cm-1]
     freq (    4) =       7.647008 [THz] =     255.076718 [cm-1]
     freq (    5) =       7.871598 [THz] =     262.568251 [cm-1]
     freq (    6) =       7.871598 [THz] =     262.568251 [cm-1]
 **************************************************************************

     Mode symmetry, C_3v (3m)   point group:

     freq (  1 -  2) =         53.6  [cm-1]   --> E    L_3           
     freq (  3 -  3) =        178.3  [cm-1]   --> A_1  L_1           
     freq (  4 -  4) =        255.1  [cm-1]   --> A_1  L_1           
     freq (  5 -  6) =        262.6  [cm-1]   --> E    L_3           

     Calculation of q =    0.5000000  -0.5000000   0.5000000
 
     Parallelization info
     --------------------
     sticks:   dense  smooth     PW     G-vecs:    dense   smooth      PW
     Min         586     192     66                18861     3584     722
     Max         587     193     67                18866     3603     724
     Sum        2347     769    265                75457    14361    2891
 


     bravais-lattice index     =            2
     lattice parameter (alat)  =      10.6867  a.u.
     unit-cell volume          =     305.1201 (a.u.)^3
     number of atoms/cell      =            2
     number of atomic types    =            2
     number of electrons       =        18.00
     number of Kohn-Sham states=            9
     kinetic-energy cutoff     =      50.0000  Ry
     charge density cutoff     =     600.0000  Ry
     Exchange-correlation      =  SLA  PW   PBX  PBC ( 1  4  3  4 0 0)

     celldm(1)=  10.686700  celldm(2)=   0.000000  celldm(3)=   0.000000
     celldm(4)=   0.000000  celldm(5)=   0.000000  celldm(6)=   0.000000

     crystal axes: (cart. coord. in units of alat)
               a(1) = (  -0.500000   0.000000   0.500000 )  
               a(2) = (   0.000000   0.500000   0.500000 )  
               a(3) = (  -0.500000   0.500000   0.000000 )  

     reciprocal axes: (cart. coord. in units 2 pi/alat)
               b(1) = ( -1.000000 -1.000000  1.000000 )  
               b(2) = (  1.000000  1.000000  1.000000 )  
               b(3) = ( -1.000000  1.000000 -1.000000 )  


     PseudoPot. # 1 for Ga read from file:
     ./Ga.pbe-dn-kjpaw_psl.0.2.upf
     MD5 check sum: f703b3f64ba021741ea9c16c693bf590
     Pseudo is Projector augmented-wave + core cor, Zval = 13.0
     Generated using "atomic" code by A. Dal Corso  v.5.0.99 svn rev. 10869
     Shape of augmentation charge: BESSEL
     Using radial grid of 1205 points,  6 beta functions with: 
                l(1) =   0
                l(2) =   0
                l(3) =   1
                l(4) =   1
                l(5) =   2
                l(6) =   2
     Q(r) pseudized with 0 coefficients 


     PseudoPot. # 2 for As read from file:
     ./As.pbe-n-kjpaw_psl.0.2.upf
     MD5 check sum: 076d91deeb42e24e5cc35739acc2a16c
     Pseudo is Projector augmented-wave + core cor, Zval =  5.0
     Generated using "atomic" code by A. Dal Corso  v.5.0.99 svn rev. 10869
     Shape of augmentation charge: PSQ
     Using radial grid of 1209 points,  4 beta functions with: 
                l(1) =   0
                l(2) =   0
                l(3) =   1
                l(4) =   1
     Q(r) pseudized with 0 coefficients 


     atomic species   valence    mass     pseudopotential
        Ga            13.00    69.72300     Ga( 1.00)
        As             5.00    74.92159     As( 1.00)

     24 Sym. Ops. (no inversion) found



   Cartesian axes

     site n.     atom                  positions (alat units)
         1           Ga  tau(   1) = (   0.0000000   0.0000000   0.0000000  )
         2           As  tau(   2) = (   0.2500000   0.2500000   0.2500000  )

     number of k points=   130

     Number of k-points >= 100: set verbosity='high' to print them.

     Dense  grid:    75457 G-vectors     FFT dimensions: (  60,  60,  60)

     Smooth grid:    14361 G-vectors     FFT dimensions: (  36,  36,  36)

     Largest allocated arrays     est. size (Mb)     dimensions
        Kohn-Sham Wavefunctions         0.07 Mb     (     476,    9)
        NL pseudopotentials             0.19 Mb     (     476,   26)
        Each V/rho on FFT grid          0.82 Mb     (   54000)
        Each G-vector array             0.14 Mb     (   18866)
        G-vector shells                 0.00 Mb     (     581)
     Largest temporary arrays     est. size (Mb)     dimensions
        Auxiliary wavefunctions         0.26 Mb     (     476,   36)
        Each subspace H/S matrix        0.02 Mb     (      36,   36)
        Each <psi_i|beta_j> matrix      0.00 Mb     (      26,    9)

     The potential is recalculated from file :
     ./_ph0/GaAs.q_5/GaAs.save/charge-density.dat

     Starting wfc are   13 atomic wfcs
     Checking if some PAW data can be deallocated... 

     Band Structure Calculation
     Davidson diagonalization with overlap

     ethr =  5.56E-11,  avg # of iterations = 11.5

     total cpu time spent up to now is       26.9 secs

     End of band structure calculation

     Number of k-points >= 100: set verbosity='high' to print the bands.

     highest occupied level (ev):     7.6030

     Writing output data file GaAs.save

                                                                                

     bravais-lattice index     =            2
     lattice parameter (alat)  =      10.6867  a.u.
     unit-cell volume          =     305.1201 (a.u.)^3
     number of atoms/cell      =            2
     number of atomic types    =            2
     kinetic-energy cut-off    =      50.0000  Ry
     charge density cut-off    =     600.0000  Ry
     convergence threshold     =      1.0E-14
     beta                      =       0.3000
     number of iterations used =            4
     Exchange-correlation      =  SLA  PW   PBX  PBC ( 1  4  3  4 0 0)


     celldm(1)=   10.68670  celldm(2)=    0.00000  celldm(3)=    0.00000
     celldm(4)=    0.00000  celldm(5)=    0.00000  celldm(6)=    0.00000

     crystal axes: (cart. coord. in units of alat)
               a(1) = ( -0.5000  0.0000  0.5000 )  
               a(2) = (  0.0000  0.5000  0.5000 )  
               a(3) = ( -0.5000  0.5000  0.0000 )  

     reciprocal axes: (cart. coord. in units 2 pi/alat)
               b(1) = ( -1.0000 -1.0000  1.0000 )  
               b(2) = (  1.0000  1.0000  1.0000 )  
               b(3) = ( -1.0000  1.0000 -1.0000 )  


     Atoms inside the unit cell: 

     Cartesian axes

     site n.  atom      mass           positions (alat units)
        1     Ga  69.7230   tau(    1) = (    0.00000    0.00000    0.00000  )
        2     As  74.9216   tau(    2) = (    0.25000    0.25000    0.25000  )

     Computing dynamical matrix for 
                    q = (   0.5000000  -0.5000000   0.5000000 )
 
      7 Sym.Ops. (with q -> -q+G )


     G cutoff = 1735.7163  (  18866 G-vectors)     FFT grid: ( 60, 60, 60)
     G cutoff =  578.5721  (   3585 G-vectors)  smooth grid: ( 36, 36, 36)
     number of k points=   130

     PseudoPot. # 1 for Ga read from file:
     ./Ga.pbe-dn-kjpaw_psl.0.2.upf
     MD5 check sum: f703b3f64ba021741ea9c16c693bf590
     Pseudo is Projector augmented-wave + core cor, Zval = 13.0
     Generated using "atomic" code by A. Dal Corso  v.5.0.99 svn rev. 10869
     Shape of augmentation charge: BESSEL
     Using radial grid of 1205 points,  6 beta functions with: 
                l(1) =   0
                l(2) =   0
                l(3) =   1
                l(4) =   1
                l(5) =   2
                l(6) =   2
     Q(r) pseudized with 0 coefficients 


     PseudoPot. # 2 for As read from file:
     ./As.pbe-n-kjpaw_psl.0.2.upf
     MD5 check sum: 076d91deeb42e24e5cc35739acc2a16c
     Pseudo is Projector augmented-wave + core cor, Zval =  5.0
     Generated using "atomic" code by A. Dal Corso  v.5.0.99 svn rev. 10869
     Shape of augmentation charge: PSQ
     Using radial grid of 1209 points,  4 beta functions with: 
                l(1) =   0
                l(2) =   0
                l(3) =   1
                l(4) =   1
     Q(r) pseudized with 0 coefficients 


     Mode symmetry, C_3v (3m)   point group:


     Atomic displacements:
     There are   4 irreducible representations

     Representation     1      1 modes -A_1  L_1  To be done

     Representation     2      1 modes -A_1  L_1  To be done

     Representation     3      2 modes -E    L_3  To be done

     Representation     4      2 modes -E    L_3  To be done



     Alpha used in Ewald sum =   2.8000
     PHONON       :  6m10.62s CPU     6m41.91s WALL



     Representation #  1 mode #   1

     Self-consistent Calculation

      iter #   1 total cpu time :   402.9 secs   av.it.:   5.0
      thresh= 1.000E-02 alpha_mix =  0.300 |ddv_scf|^2 =  9.516E-06

      iter #   2 total cpu time :   404.5 secs   av.it.:   9.1
      thresh= 3.085E-04 alpha_mix =  0.300 |ddv_scf|^2 =  1.404E-07

      iter #   3 total cpu time :   405.5 secs   av.it.:   9.7
      thresh= 3.748E-05 alpha_mix =  0.300 |ddv_scf|^2 =  8.450E-09

      iter #   4 total cpu time :   406.6 secs   av.it.:   9.9
      thresh= 9.192E-06 alpha_mix =  0.300 |ddv_scf|^2 =  1.932E-09

      iter #   5 total cpu time :   407.7 secs   av.it.:  10.0
      thresh= 4.395E-06 alpha_mix =  0.300 |ddv_scf|^2 =  6.305E-11

      iter #   6 total cpu time :   409.1 secs   av.it.:  10.4
      thresh= 7.941E-07 alpha_mix =  0.300 |ddv_scf|^2 =  8.046E-12

      iter #   7 total cpu time :   410.2 secs   av.it.:  10.2
      thresh= 2.837E-07 alpha_mix =  0.300 |ddv_scf|^2 =  7.250E-13

      iter #   8 total cpu time :   411.6 secs   av.it.:  10.2
      thresh= 8.515E-08 alpha_mix =  0.300 |ddv_scf|^2 =  2.121E-13

      iter #   9 total cpu time :   412.6 secs   av.it.:  10.2
      thresh= 4.605E-08 alpha_mix =  0.300 |ddv_scf|^2 =  8.421E-15

     End of self-consistent calculation

     Convergence has been achieved 


     Representation #  2 mode #   2

     Self-consistent Calculation

      iter #   1 total cpu time :   413.8 secs   av.it.:   7.1
      thresh= 1.000E-02 alpha_mix =  0.300 |ddv_scf|^2 =  8.809E-05

      iter #   2 total cpu time :   415.2 secs   av.it.:   9.1
      thresh= 9.385E-04 alpha_mix =  0.300 |ddv_scf|^2 =  2.771E-06

      iter #   3 total cpu time :   416.5 secs   av.it.:   9.5
      thresh= 1.665E-04 alpha_mix =  0.300 |ddv_scf|^2 =  4.043E-07

      iter #   4 total cpu time :   417.6 secs   av.it.:  10.3
      thresh= 6.359E-05 alpha_mix =  0.300 |ddv_scf|^2 =  3.970E-08

      iter #   5 total cpu time :   418.8 secs   av.it.:  10.7
      thresh= 1.992E-05 alpha_mix =  0.300 |ddv_scf|^2 =  4.307E-09

      iter #   6 total cpu time :   420.0 secs   av.it.:  10.0
      thresh= 6.563E-06 alpha_mix =  0.300 |ddv_scf|^2 =  3.400E-10

      iter #   7 total cpu time :   421.2 secs   av.it.:   9.8
      thresh= 1.844E-06 alpha_mix =  0.300 |ddv_scf|^2 =  7.576E-11

      iter #   8 total cpu time :   422.5 secs   av.it.:   9.9
      thresh= 8.704E-07 alpha_mix =  0.300 |ddv_scf|^2 =  4.001E-12

      iter #   9 total cpu time :   423.7 secs   av.it.:  10.6
      thresh= 2.000E-07 alpha_mix =  0.300 |ddv_scf|^2 =  3.722E-13

      iter #  10 total cpu time :   425.9 secs   av.it.:   9.8
      thresh= 6.101E-08 alpha_mix =  0.300 |ddv_scf|^2 =  1.143E-13

      iter #  11 total cpu time :   426.9 secs   av.it.:  10.5
      thresh= 3.380E-08 alpha_mix =  0.300 |ddv_scf|^2 =  8.610E-15

     End of self-consistent calculation

     Convergence has been achieved 


     Representation #  3 modes #   3  4

     Self-consistent Calculation

      iter #   1 total cpu time :   430.0 secs   av.it.:   4.7
      thresh= 1.000E-02 alpha_mix =  0.300 |ddv_scf|^2 =  2.980E-08

      iter #   2 total cpu time :   432.4 secs   av.it.:  10.5
      thresh= 1.726E-05 alpha_mix =  0.300 |ddv_scf|^2 =  8.311E-09

      iter #   3 total cpu time :   434.6 secs   av.it.:  11.1
      thresh= 9.117E-06 alpha_mix =  0.300 |ddv_scf|^2 =  4.510E-10

      iter #   4 total cpu time :   437.1 secs   av.it.:  11.2
      thresh= 2.124E-06 alpha_mix =  0.300 |ddv_scf|^2 =  8.445E-12

      iter #   5 total cpu time :   439.8 secs   av.it.:  10.8
      thresh= 2.906E-07 alpha_mix =  0.300 |ddv_scf|^2 =  1.971E-12

      iter #   6 total cpu time :   442.3 secs   av.it.:  11.5
      thresh= 1.404E-07 alpha_mix =  0.300 |ddv_scf|^2 =  5.848E-14

      iter #   7 total cpu time :   444.5 secs   av.it.:  11.6
      thresh= 2.418E-08 alpha_mix =  0.300 |ddv_scf|^2 =  2.003E-15

     End of self-consistent calculation

     Convergence has been achieved 


     Representation #  4 modes #   5  6

     Self-consistent Calculation

      iter #   1 total cpu time :   447.0 secs   av.it.:   6.8
      thresh= 1.000E-02 alpha_mix =  0.300 |ddv_scf|^2 =  1.636E-06

      iter #   2 total cpu time :   449.4 secs   av.it.:  10.8
      thresh= 1.279E-04 alpha_mix =  0.300 |ddv_scf|^2 =  3.939E-07

      iter #   3 total cpu time :   452.2 secs   av.it.:  11.8
      thresh= 6.276E-05 alpha_mix =  0.300 |ddv_scf|^2 =  8.994E-09

      iter #   4 total cpu time :   454.5 secs   av.it.:  11.5
      thresh= 9.484E-06 alpha_mix =  0.300 |ddv_scf|^2 =  6.789E-10

      iter #   5 total cpu time :   456.9 secs   av.it.:  10.7
      thresh= 2.606E-06 alpha_mix =  0.300 |ddv_scf|^2 =  4.710E-11

      iter #   6 total cpu time :   459.2 secs   av.it.:  10.6
      thresh= 6.863E-07 alpha_mix =  0.300 |ddv_scf|^2 =  3.254E-12

      iter #   7 total cpu time :   461.4 secs   av.it.:  11.5
      thresh= 1.804E-07 alpha_mix =  0.300 |ddv_scf|^2 =  6.387E-14

      iter #   8 total cpu time :   464.0 secs   av.it.:  10.2
      thresh= 2.527E-08 alpha_mix =  0.300 |ddv_scf|^2 =  2.810E-14

      iter #   9 total cpu time :   466.3 secs   av.it.:  11.1
      thresh= 1.676E-08 alpha_mix =  0.300 |ddv_scf|^2 =  1.428E-15

     End of self-consistent calculation

     Convergence has been achieved 
 
     Number of q in the star =    4
     List of q in the star:
          1   0.500000000  -0.500000000   0.500000000
          2  -0.500000000   0.500000000   0.500000000
          3   0.500000000   0.500000000  -0.500000000
          4  -0.500000000  -0.500000000  -0.500000000

     Diagonalizing the dynamical matrix

     q = (    0.500000000  -0.500000000   0.500000000 ) 

 **************************************************************************
     freq (    1) =       1.712796 [THz] =      57.132722 [cm-1]
     freq (    2) =       1.712796 [THz] =      57.132722 [cm-1]
     freq (    3) =       6.157515 [THz] =     205.392576 [cm-1]
     freq (    4) =       7.205997 [THz] =     240.366192 [cm-1]
     freq (    5) =       7.886563 [THz] =     263.067440 [cm-1]
     freq (    6) =       7.886563 [THz] =     263.067440 [cm-1]
 **************************************************************************

     Mode symmetry, C_3v (3m)   point group:

     freq (  1 -  2) =         57.1  [cm-1]   --> E    L_3           
     freq (  3 -  3) =        205.4  [cm-1]   --> A_1  L_1           
     freq (  4 -  4) =        240.4  [cm-1]   --> A_1  L_1           
     freq (  5 -  6) =        263.1  [cm-1]   --> E    L_3           

     Calculation of q =    0.0000000   0.2500000   0.0000000
 
     Parallelization info
     --------------------
     sticks:   dense  smooth     PW     G-vecs:    dense   smooth      PW
     Min         586     192     63                18861     3582     659
     Max         587     193     64                18866     3598     660
     Sum        2347     769    253                75457    14361    2637
 


     bravais-lattice index     =            2
     lattice parameter (alat)  =      10.6867  a.u.
     unit-cell volume          =     305.1201 (a.u.)^3
     number of atoms/cell      =            2
     number of atomic types    =            2
     number of electrons       =        18.00
     number of Kohn-Sham states=            9
     kinetic-energy cutoff     =      50.0000  Ry
     charge density cutoff     =     600.0000  Ry
     Exchange-correlation      =  SLA  PW   PBX  PBC ( 1  4  3  4 0 0)

     celldm(1)=  10.686700  celldm(2)=   0.000000  celldm(3)=   0.000000
     celldm(4)=   0.000000  celldm(5)=   0.000000  celldm(6)=   0.000000

     crystal axes: (cart. coord. in units of alat)
               a(1) = (  -0.500000   0.000000   0.500000 )  
               a(2) = (   0.000000   0.500000   0.500000 )  
               a(3) = (  -0.500000   0.500000   0.000000 )  

     reciprocal axes: (cart. coord. in units 2 pi/alat)
               b(1) = ( -1.000000 -1.000000  1.000000 )  
               b(2) = (  1.000000  1.000000  1.000000 )  
               b(3) = ( -1.000000  1.000000 -1.000000 )  


     PseudoPot. # 1 for Ga read from file:
     ./Ga.pbe-dn-kjpaw_psl.0.2.upf
     MD5 check sum: f703b3f64ba021741ea9c16c693bf590
     Pseudo is Projector augmented-wave + core cor, Zval = 13.0
     Generated using "atomic" code by A. Dal Corso  v.5.0.99 svn rev. 10869
     Shape of augmentation charge: BESSEL
     Using radial grid of 1205 points,  6 beta functions with: 
                l(1) =   0
                l(2) =   0
                l(3) =   1
                l(4) =   1
                l(5) =   2
                l(6) =   2
     Q(r) pseudized with 0 coefficients 


     PseudoPot. # 2 for As read from file:
     ./As.pbe-n-kjpaw_psl.0.2.upf
     MD5 check sum: 076d91deeb42e24e5cc35739acc2a16c
     Pseudo is Projector augmented-wave + core cor, Zval =  5.0
     Generated using "atomic" code by A. Dal Corso  v.5.0.99 svn rev. 10869
     Shape of augmentation charge: PSQ
     Using radial grid of 1209 points,  4 beta functions with: 
                l(1) =   0
                l(2) =   0
                l(3) =   1
                l(4) =   1
     Q(r) pseudized with 0 coefficients 


     atomic species   valence    mass     pseudopotential
        Ga            13.00    69.72300     Ga( 1.00)
        As             5.00    74.92159     As( 1.00)

     24 Sym. Ops. (no inversion) found



   Cartesian axes

     site n.     atom                  positions (alat units)
         1           Ga  tau(   1) = (   0.0000000   0.0000000   0.0000000  )
         2           As  tau(   2) = (   0.2500000   0.2500000   0.2500000  )

     number of k points=   328

     Number of k-points >= 100: set verbosity='high' to print them.

     Dense  grid:    75457 G-vectors     FFT dimensions: (  60,  60,  60)

     Smooth grid:    14361 G-vectors     FFT dimensions: (  36,  36,  36)

     Largest allocated arrays     est. size (Mb)     dimensions
        Kohn-Sham Wavefunctions         0.06 Mb     (     471,    9)
        NL pseudopotentials             0.19 Mb     (     471,   26)
        Each V/rho on FFT grid          0.82 Mb     (   54000)
        Each G-vector array             0.14 Mb     (   18866)
        G-vector shells                 0.00 Mb     (     578)
     Largest temporary arrays     est. size (Mb)     dimensions
        Auxiliary wavefunctions         0.26 Mb     (     471,   36)
        Each subspace H/S matrix        0.02 Mb     (      36,   36)
        Each <psi_i|beta_j> matrix      0.00 Mb     (      26,    9)

     The potential is recalculated from file :
     ./_ph0/GaAs.q_6/GaAs.save/charge-density.dat

     Starting wfc are   13 atomic wfcs
     Checking if some PAW data can be deallocated... 

     Band Structure Calculation
     Davidson diagonalization with overlap

     ethr =  5.56E-11,  avg # of iterations = 11.5

     total cpu time spent up to now is       38.5 secs

     End of band structure calculation

     Number of k-points >= 100: set verbosity='high' to print the bands.

     highest occupied level (ev):     7.6030

     Writing output data file GaAs.save

                                                                                

     bravais-lattice index     =            2
     lattice parameter (alat)  =      10.6867  a.u.
     unit-cell volume          =     305.1201 (a.u.)^3
     number of atoms/cell      =            2
     number of atomic types    =            2
     kinetic-energy cut-off    =      50.0000  Ry
     charge density cut-off    =     600.0000  Ry
     convergence threshold     =      1.0E-14
     beta                      =       0.3000
     number of iterations used =            4
     Exchange-correlation      =  SLA  PW   PBX  PBC ( 1  4  3  4 0 0)


     celldm(1)=   10.68670  celldm(2)=    0.00000  celldm(3)=    0.00000
     celldm(4)=    0.00000  celldm(5)=    0.00000  celldm(6)=    0.00000

     crystal axes: (cart. coord. in units of alat)
               a(1) = ( -0.5000  0.0000  0.5000 )  
               a(2) = (  0.0000  0.5000  0.5000 )  
               a(3) = ( -0.5000  0.5000  0.0000 )  

     reciprocal axes: (cart. coord. in units 2 pi/alat)
               b(1) = ( -1.0000 -1.0000  1.0000 )  
               b(2) = (  1.0000  1.0000  1.0000 )  
               b(3) = ( -1.0000  1.0000 -1.0000 )  


     Atoms inside the unit cell: 

     Cartesian axes

     site n.  atom      mass           positions (alat units)
        1     Ga  69.7230   tau(    1) = (    0.00000    0.00000    0.00000  )
        2     As  74.9216   tau(    2) = (    0.25000    0.25000    0.25000  )

     Computing dynamical matrix for 
                    q = (   0.0000000   0.2500000   0.0000000 )
 
      4 Sym.Ops. (no q -> -q+G )


     G cutoff = 1735.7163  (  18866 G-vectors)     FFT grid: ( 60, 60, 60)
     G cutoff =  578.5721  (   3598 G-vectors)  smooth grid: ( 36, 36, 36)
[...]
     Smooth grid:    14361 G-vectors     FFT dimensions: (  36,  36,  36)

     Largest allocated arrays     est. size (Mb)     dimensions
        Kohn-Sham Wavefunctions         0.07 Mb     (     481,    9)
        NL pseudopotentials             0.19 Mb     (     481,   26)
        Each V/rho on FFT grid          0.82 Mb     (   54000)
        Each G-vector array             0.14 Mb     (   18866)
        G-vector shells                 0.00 Mb     (     581)
     Largest temporary arrays     est. size (Mb)     dimensions
        Auxiliary wavefunctions         0.26 Mb     (     481,   36)
        Each subspace H/S matrix        0.02 Mb     (      36,   36)
        Each <psi_i|beta_j> matrix      0.00 Mb     (      26,    9)

     The potential is recalculated from file :
     ./_ph0/GaAs.q_29/GaAs.save/charge-density.dat

     Starting wfc are   13 atomic wfcs
     Checking if some PAW data can be deallocated... 

     Band Structure Calculation
     Davidson diagonalization with overlap

     ethr =  5.56E-11,  avg # of iterations = 11.4

     total cpu time spent up to now is      223.6 secs

     End of band structure calculation

     Number of k-points >= 100: set verbosity='high' to print the bands.

     highest occupied level (ev):     7.6030

     Writing output data file GaAs.save

                                                                                

     bravais-lattice index     =            2
     lattice parameter (alat)  =      10.6867  a.u.
     unit-cell volume          =     305.1201 (a.u.)^3
     number of atoms/cell      =            2
     number of atomic types    =            2
     kinetic-energy cut-off    =      50.0000  Ry
     charge density cut-off    =     600.0000  Ry
     convergence threshold     =      1.0E-14
     beta                      =       0.3000
     number of iterations used =            4
     Exchange-correlation      =  SLA  PW   PBX  PBC ( 1  4  3  4 0 0)


     celldm(1)=   10.68670  celldm(2)=    0.00000  celldm(3)=    0.00000
     celldm(4)=    0.00000  celldm(5)=    0.00000  celldm(6)=    0.00000

     crystal axes: (cart. coord. in units of alat)
               a(1) = ( -0.5000  0.0000  0.5000 )  
               a(2) = (  0.0000  0.5000  0.5000 )  
               a(3) = ( -0.5000  0.5000  0.0000 )  

     reciprocal axes: (cart. coord. in units 2 pi/alat)
               b(1) = ( -1.0000 -1.0000  1.0000 )  
               b(2) = (  1.0000  1.0000  1.0000 )  
               b(3) = ( -1.0000  1.0000 -1.0000 )  


     Atoms inside the unit cell: 

     Cartesian axes

     site n.  atom      mass           positions (alat units)
        1     Ga  69.7230   tau(    1) = (    0.00000    0.00000    0.00000  )
        2     As  74.9216   tau(    2) = (    0.25000    0.25000    0.25000  )

     Computing dynamical matrix for 
                    q = (  -0.5000000  -1.0000000   0.0000000 )
 
      4 Sym.Ops. (no q -> -q+G )


     G cutoff = 1735.7163  (  18866 G-vectors)     FFT grid: ( 60, 60, 60)
     G cutoff =  578.5721  (   3592 G-vectors)  smooth grid: ( 36, 36, 36)
     number of k points=   268

     PseudoPot. # 1 for Ga read from file:
     ./Ga.pbe-dn-kjpaw_psl.0.2.upf
     MD5 check sum: f703b3f64ba021741ea9c16c693bf590
     Pseudo is Projector augmented-wave + core cor, Zval = 13.0
     Generated using "atomic" code by A. Dal Corso  v.5.0.99 svn rev. 10869
     Shape of augmentation charge: BESSEL
     Using radial grid of 1205 points,  6 beta functions with: 
                l(1) =   0
                l(2) =   0
                l(3) =   1
                l(4) =   1
                l(5) =   2
                l(6) =   2
     Q(r) pseudized with 0 coefficients 


     PseudoPot. # 2 for As read from file:
     ./As.pbe-n-kjpaw_psl.0.2.upf
     MD5 check sum: 076d91deeb42e24e5cc35739acc2a16c
     Pseudo is Projector augmented-wave + core cor, Zval =  5.0
     Generated using "atomic" code by A. Dal Corso  v.5.0.99 svn rev. 10869
     Shape of augmentation charge: PSQ
     Using radial grid of 1209 points,  4 beta functions with: 
                l(1) =   0
                l(2) =   0
                l(3) =   1
                l(4) =   1
     Q(r) pseudized with 0 coefficients 


     Mode symmetry, S_4 (-4)    point group:


     Atomic displacements:
     There are   6 irreducible representations

     Representation     1      1 modes -A    W_1  To be done

     Representation     2      1 modes -B    W_3  To be done

     Representation     3      1 modes -B    W_3  To be done

     Representation     4      1 modes -E    W_4  To be done

     Representation     5      1 modes -E*   W_2  To be done

     Representation     6      1 modes -E*   W_2  To be done



     Alpha used in Ewald sum =   2.8000
     PHONON       :     1h30m CPU        1h36m WALL



     Representation #  1 mode #   1

     Self-consistent Calculation

      iter #   1 total cpu time :  5808.2 secs   av.it.:   4.8
      thresh= 1.000E-02 alpha_mix =  0.300 |ddv_scf|^2 =  1.955E-06

      iter #   2 total cpu time :  5809.7 secs   av.it.:   9.4
      thresh= 1.398E-04 alpha_mix =  0.300 |ddv_scf|^2 =  3.918E-08

      iter #   3 total cpu time :  5811.4 secs   av.it.:   9.9
      thresh= 1.979E-05 alpha_mix =  0.300 |ddv_scf|^2 =  6.059E-09

      iter #   4 total cpu time :  5813.1 secs   av.it.:  10.8
      thresh= 7.784E-06 alpha_mix =  0.300 |ddv_scf|^2 =  3.767E-10

      iter #   5 total cpu time :  5814.8 secs   av.it.:  10.8
      thresh= 1.941E-06 alpha_mix =  0.300 |ddv_scf|^2 =  2.321E-11

      iter #   6 total cpu time :  5816.5 secs   av.it.:  10.8
      thresh= 4.818E-07 alpha_mix =  0.300 |ddv_scf|^2 =  1.433E-12

      iter #   7 total cpu time :  5819.2 secs   av.it.:  10.1
      thresh= 1.197E-07 alpha_mix =  0.300 |ddv_scf|^2 =  3.753E-13

      iter #   8 total cpu time :  5820.8 secs   av.it.:  10.7
      thresh= 6.126E-08 alpha_mix =  0.300 |ddv_scf|^2 =  6.748E-15

     End of self-consistent calculation

     Convergence has been achieved 


     Representation #  2 mode #   2

     Self-consistent Calculation

      iter #   1 total cpu time :  5822.1 secs   av.it.:   5.0
      thresh= 1.000E-02 alpha_mix =  0.300 |ddv_scf|^2 =  1.159E-06

      iter #   2 total cpu time :  5823.8 secs   av.it.:   9.1
      thresh= 1.076E-04 alpha_mix =  0.300 |ddv_scf|^2 =  1.014E-07

      iter #   3 total cpu time :  5825.4 secs   av.it.:   9.7
      thresh= 3.184E-05 alpha_mix =  0.300 |ddv_scf|^2 =  4.288E-09

      iter #   4 total cpu time :  5827.2 secs   av.it.:  10.3
      thresh= 6.548E-06 alpha_mix =  0.300 |ddv_scf|^2 =  8.655E-11

      iter #   5 total cpu time :  5828.9 secs   av.it.:  10.1
      thresh= 9.303E-07 alpha_mix =  0.300 |ddv_scf|^2 =  1.875E-11

      iter #   6 total cpu time :  5831.2 secs   av.it.:  10.8
      thresh= 4.330E-07 alpha_mix =  0.300 |ddv_scf|^2 =  7.380E-13

      iter #   7 total cpu time :  5833.4 secs   av.it.:  10.8
      thresh= 8.590E-08 alpha_mix =  0.300 |ddv_scf|^2 =  1.077E-14

      iter #   8 total cpu time :  5835.6 secs   av.it.:   9.4
      thresh= 1.038E-08 alpha_mix =  0.300 |ddv_scf|^2 =  4.202E-15

     End of self-consistent calculation

     Convergence has been achieved 


     Representation #  3 mode #   3

     Self-consistent Calculation

      iter #   1 total cpu time :  5838.2 secs   av.it.:   6.9
      thresh= 1.000E-02 alpha_mix =  0.300 |ddv_scf|^2 =  1.616E-05

      iter #   2 total cpu time :  5840.4 secs   av.it.:   9.7
      thresh= 4.020E-04 alpha_mix =  0.300 |ddv_scf|^2 =  1.580E-06

      iter #   3 total cpu time :  5842.9 secs   av.it.:  10.2
      thresh= 1.257E-04 alpha_mix =  0.300 |ddv_scf|^2 =  1.504E-07

      iter #   4 total cpu time :  5844.8 secs   av.it.:  10.9
      thresh= 3.878E-05 alpha_mix =  0.300 |ddv_scf|^2 =  5.197E-09

      iter #   5 total cpu time :  5846.8 secs   av.it.:   9.7
      thresh= 7.209E-06 alpha_mix =  0.300 |ddv_scf|^2 =  2.225E-10

      iter #   6 total cpu time :  5848.5 secs   av.it.:   9.5
      thresh= 1.491E-06 alpha_mix =  0.300 |ddv_scf|^2 =  1.285E-11

      iter #   7 total cpu time :  5850.4 secs   av.it.:  10.8
      thresh= 3.585E-07 alpha_mix =  0.300 |ddv_scf|^2 =  3.384E-13

      iter #   8 total cpu time :  5852.8 secs   av.it.:   9.4
      thresh= 5.817E-08 alpha_mix =  0.300 |ddv_scf|^2 =  1.132E-13

      iter #   9 total cpu time :  5854.4 secs   av.it.:  10.6
      thresh= 3.364E-08 alpha_mix =  0.300 |ddv_scf|^2 =  3.673E-15

     End of self-consistent calculation

     Convergence has been achieved 


     Representation #  4 mode #   4

     Self-consistent Calculation

      iter #   1 total cpu time :  5857.0 secs   av.it.:   7.0
      thresh= 1.000E-02 alpha_mix =  0.300 |ddv_scf|^2 =  2.308E-05

      iter #   2 total cpu time :  5859.3 secs   av.it.:   9.5
      thresh= 4.804E-04 alpha_mix =  0.300 |ddv_scf|^2 =  1.448E-06

      iter #   3 total cpu time :  5860.9 secs   av.it.:  10.1
      thresh= 1.203E-04 alpha_mix =  0.300 |ddv_scf|^2 =  2.452E-07

      iter #   4 total cpu time :  5863.0 secs   av.it.:  10.9
      thresh= 4.951E-05 alpha_mix =  0.300 |ddv_scf|^2 =  1.060E-08

      iter #   5 total cpu time :  5864.9 secs   av.it.:  10.4
      thresh= 1.030E-05 alpha_mix =  0.300 |ddv_scf|^2 =  1.212E-10

      iter #   6 total cpu time :  5866.8 secs   av.it.:   9.0
      thresh= 1.101E-06 alpha_mix =  0.300 |ddv_scf|^2 =  4.029E-11

      iter #   7 total cpu time :  5869.0 secs   av.it.:  10.7
      thresh= 6.347E-07 alpha_mix =  0.300 |ddv_scf|^2 =  6.295E-13

      iter #   8 total cpu time :  5871.2 secs   av.it.:   9.7
      thresh= 7.934E-08 alpha_mix =  0.300 |ddv_scf|^2 =  1.324E-13

      iter #   9 total cpu time :  5873.1 secs   av.it.:  10.4
      thresh= 3.638E-08 alpha_mix =  0.300 |ddv_scf|^2 =  7.154E-15

     End of self-consistent calculation

     Convergence has been achieved 


     Representation #  5 mode #   5

     Self-consistent Calculation

      iter #   1 total cpu time :  5875.1 secs   av.it.:   6.9
      thresh= 1.000E-02 alpha_mix =  0.300 |ddv_scf|^2 =  2.263E-05

      iter #   2 total cpu time :  5877.0 secs   av.it.:   9.6
      thresh= 4.758E-04 alpha_mix =  0.300 |ddv_scf|^2 =  2.039E-06

      iter #   3 total cpu time :  5879.0 secs   av.it.:  10.2
      thresh= 1.428E-04 alpha_mix =  0.300 |ddv_scf|^2 =  1.034E-07

      iter #   4 total cpu time :  5880.9 secs   av.it.:  11.0
      thresh= 3.216E-05 alpha_mix =  0.300 |ddv_scf|^2 =  3.557E-09

      iter #   5 total cpu time :  5882.6 secs   av.it.:   9.5
      thresh= 5.964E-06 alpha_mix =  0.300 |ddv_scf|^2 =  4.814E-10

      iter #   6 total cpu time :  5884.6 secs   av.it.:   9.8
      thresh= 2.194E-06 alpha_mix =  0.300 |ddv_scf|^2 =  3.063E-11

      iter #   7 total cpu time :  5886.6 secs   av.it.:  10.7
      thresh= 5.534E-07 alpha_mix =  0.300 |ddv_scf|^2 =  6.930E-13

      iter #   8 total cpu time :  5888.5 secs   av.it.:   9.7
      thresh= 8.324E-08 alpha_mix =  0.300 |ddv_scf|^2 =  1.389E-13

      iter #   9 total cpu time :  5890.4 secs   av.it.:  10.4
      thresh= 3.727E-08 alpha_mix =  0.300 |ddv_scf|^2 =  5.459E-15

     End of self-consistent calculation

     Convergence has been achieved 


     Representation #  6 mode #   6

     Self-consistent Calculation

      iter #   1 total cpu time :  5891.8 secs   av.it.:   5.0
      thresh= 1.000E-02 alpha_mix =  0.300 |ddv_scf|^2 =  6.748E-07

      iter #   2 total cpu time :  5893.5 secs   av.it.:   9.2
      thresh= 8.214E-05 alpha_mix =  0.300 |ddv_scf|^2 =  6.933E-08

      iter #   3 total cpu time :  5895.1 secs   av.it.:   9.8
      thresh= 2.633E-05 alpha_mix =  0.300 |ddv_scf|^2 =  3.788E-09

      iter #   4 total cpu time :  5897.3 secs   av.it.:  10.6
      thresh= 6.155E-06 alpha_mix =  0.300 |ddv_scf|^2 =  6.246E-11

      iter #   5 total cpu time :  5899.1 secs   av.it.:   9.8
      thresh= 7.903E-07 alpha_mix =  0.300 |ddv_scf|^2 =  1.375E-11

      iter #   6 total cpu time :  5901.1 secs   av.it.:  10.9
      thresh= 3.709E-07 alpha_mix =  0.300 |ddv_scf|^2 =  6.708E-13

      iter #   7 total cpu time :  5903.0 secs   av.it.:  10.8
      thresh= 8.190E-08 alpha_mix =  0.300 |ddv_scf|^2 =  1.504E-14

      iter #   8 total cpu time :  5904.9 secs   av.it.:   9.1
      thresh= 1.226E-08 alpha_mix =  0.300 |ddv_scf|^2 =  6.052E-15

     End of self-consistent calculation

     Convergence has been achieved 
 
     Number of q in the star =    6
     List of q in the star:
          1  -0.500000000  -1.000000000   0.000000000
          2   0.000000000   1.000000000  -0.500000000
          3   0.000000000   1.000000000   0.500000000
          4   0.500000000   1.000000000   0.000000000
          5   0.000000000  -0.500000000  -1.000000000
          6   0.000000000   0.500000000  -1.000000000

     Diagonalizing the dynamical matrix

     q = (   -0.500000000  -1.000000000   0.000000000 ) 

 **************************************************************************
     freq (    1) =       2.808395 [THz] =      93.677960 [cm-1]
     freq (    2) =       3.187634 [THz] =     106.328035 [cm-1]
     freq (    3) =       5.918998 [THz] =     197.436513 [cm-1]
     freq (    4) =       6.181053 [THz] =     206.177744 [cm-1]
     freq (    5) =       7.704595 [THz] =     256.997618 [cm-1]
     freq (    6) =       8.035446 [THz] =     268.033625 [cm-1]
 **************************************************************************

     Mode symmetry, S_4 (-4)    point group:

     freq (  1 -  1) =         93.7  [cm-1]   --> B    W_3           
     freq (  2 -  2) =        106.3  [cm-1]   --> E*   W_2           
     freq (  3 -  3) =        197.4  [cm-1]   --> A    W_1           
     freq (  4 -  4) =        206.2  [cm-1]   --> E    W_4           
     freq (  5 -  5) =        257.0  [cm-1]   --> E*   W_2           
     freq (  6 -  6) =        268.0  [cm-1]   --> B    W_3           
 
     init_run     :     28.29s CPU     30.71s WALL (      28 calls)
     electrons    :    146.30s CPU    156.41s WALL (      28 calls)

     Called by init_run:
     wfcinit      :      0.02s CPU      0.37s WALL (      28 calls)
     potinit      :      4.55s CPU      5.66s WALL (      28 calls)

     Called by electrons:
     c_bands      :    146.18s CPU    156.30s WALL (      28 calls)
     v_of_rho     :      1.11s CPU      1.17s WALL (      29 calls)
     newd         :      2.36s CPU      2.42s WALL (      29 calls)

     Called by c_bands:
     init_us_2    :     14.03s CPU     14.29s WALL (   72454 calls)
     cegterg      :    101.42s CPU    106.02s WALL (    1982 calls)

     Called by *egterg:
     h_psi        :     96.35s CPU    101.27s WALL (   26935 calls)
     s_psi        :    111.13s CPU    112.22s WALL ( 1824539 calls)
     g_psi        :      0.77s CPU      0.77s WALL (   22971 calls)
     cdiaghg      :      6.55s CPU      6.67s WALL (   24953 calls)

     Called by h_psi:
     add_vuspsi   :     65.68s CPU     67.76s WALL (  894826 calls)

     General routines
     calbec       :    137.72s CPU    138.76s WALL ( 1931277 calls)
     fft          :     54.25s CPU     56.45s WALL (   31808 calls)
     ffts         :      8.29s CPU      8.54s WALL (   10848 calls)
     fftw         :   2912.48s CPU   3026.30s WALL (14179105 calls)
     interpolate  :      0.13s CPU      0.15s WALL (      57 calls)
     davcio       :      4.50s CPU     72.91s WALL (  332254 calls)
 
     Parallel routines
     fft_scatter  :    616.04s CPU    715.50s WALL (14221761 calls)

     PAW routines
     PAW_pot      :      1.24s CPU      1.33s WALL (      29 calls)
 
     PHONON       :     1h32m CPU        1h38m WALL

     INITIALIZATION: 
     phq_setup    :      2.89s CPU      3.81s WALL (      29 calls)
     phq_init     :    142.70s CPU    145.57s WALL (      29 calls)
 
     phq_init     :    142.70s CPU    145.57s WALL (      29 calls)
     set_drhoc    :     68.81s CPU     69.01s WALL (      87 calls)
     init_vloc    :      0.26s CPU      0.28s WALL (      29 calls)
     init_us_1    :     10.22s CPU     10.31s WALL (      29 calls)
     newd         :      2.36s CPU      2.42s WALL (      29 calls)
     dvanqq       :     18.93s CPU     18.98s WALL (      29 calls)
     drho         :     40.94s CPU     42.15s WALL (      29 calls)
 
     DYNAMICAL MATRIX:
     dynmat0      :     49.48s CPU     50.20s WALL (      29 calls)
     phqscf       :   5158.09s CPU   5495.23s WALL (      29 calls)
     dynmatrix    :      5.91s CPU      7.02s WALL (      29 calls)
 
     phqscf       :   5158.09s CPU   5495.23s WALL (      29 calls)
     solve_linter :   5152.14s CPU   5477.01s WALL (     160 calls)
     drhodv       :      5.23s CPU      5.72s WALL (     160 calls)
 
     dynmat0      :     49.48s CPU     50.20s WALL (      29 calls)
     dynmat_us    :      1.57s CPU      1.63s WALL (      29 calls)
     d2ionq       :      0.15s CPU      0.16s WALL (      29 calls)
     dynmatcc     :     47.09s CPU     47.17s WALL (      29 calls)
 
     dynmat_us    :      1.57s CPU      1.63s WALL (      29 calls)
     addusdynmat  :      0.00s CPU      0.00s WALL (      29 calls)
 
     phqscf       :   5158.09s CPU   5495.23s WALL (      29 calls)
     solve_linter :   5152.14s CPU   5477.01s WALL (     160 calls)
 
     solve_linter :   5152.14s CPU   5477.01s WALL (     160 calls)
     dvqpsi_us    :     33.93s CPU     35.14s WALL (    5994 calls)
     ortho        :     19.49s CPU     19.66s WALL (   61810 calls)
     cgsolve      :   3088.59s CPU   3200.66s WALL (   61810 calls)
     incdrhoscf   :    337.95s CPU    349.24s WALL (   61810 calls)
     addusddens   :    176.98s CPU    178.00s WALL (    1773 calls)
     vpsifft      :    221.24s CPU    230.04s WALL (   55744 calls)
     dv_of_drho   :     67.64s CPU     69.00s WALL (    1746 calls)
     mix_pot      :     25.57s CPU     52.92s WALL (    1620 calls)
     psymdvscf    :     59.31s CPU     60.71s WALL (    1215 calls)
     newdq        :    169.55s CPU    170.00s WALL (    1620 calls)
     adddvscf     :      5.95s CPU      6.17s WALL (   55816 calls)
     drhodvus     :      0.23s CPU      0.54s WALL (     160 calls)
 
     dvqpsi_us    :     33.93s CPU     35.14s WALL (    5994 calls)
     dvqpsi_us_on :      3.38s CPU      3.38s WALL (    5994 calls)
 
     cgsolve      :   3088.59s CPU   3200.66s WALL (   61810 calls)
     ch_psi       :   3043.86s CPU   3153.47s WALL (  867891 calls)
 
     ch_psi       :   3043.86s CPU   3153.47s WALL (  867891 calls)
     h_psiq       :   2849.51s CPU   2956.31s WALL (  867891 calls)
     last         :    187.87s CPU    190.01s WALL (  867891 calls)
 
     h_psiq       :   2849.51s CPU   2956.31s WALL (  867891 calls)
     firstfft     :   1433.82s CPU   1473.02s WALL ( 5749596 calls)
     secondfft    :   1135.03s CPU   1194.57s WALL ( 5749596 calls)
     add_vuspsi   :     65.68s CPU     67.76s WALL (  894826 calls)
 
     incdrhoscf   :    337.95s CPU    349.24s WALL (   61810 calls)
     addusdbec    :      7.76s CPU      7.70s WALL (   67780 calls)
 
     drhodvus     :      0.23s CPU      0.54s WALL (     160 calls)
 
      General routines
     calbec       :    137.72s CPU    138.76s WALL ( 1931277 calls)
     fft          :     54.25s CPU     56.45s WALL (   31808 calls)
     ffts         :      8.29s CPU      8.54s WALL (   10848 calls)
     fftw         :   2912.48s CPU   3026.30s WALL (14179105 calls)
     cinterpolate :      8.11s CPU      8.59s WALL (    3663 calls)
     davcio       :      4.50s CPU     72.91s WALL (  332254 calls)
     write_rec    :      2.83s CPU    115.42s WALL (    1780 calls)
 
 
     PHONON       :     1h32m CPU        1h38m WALL

 
   This run was terminated on:  16:51:11   9Dec2015            

=------------------------------------------------------------------------------=
   JOB DONE.
=------------------------------------------------------------------------------=
 
TACC: Shutdown complete. Exiting.
