TACC: Starting up job 6146467
TACC: Setting up parallel environment for MVAPICH2+mpispawn.
TACC: Starting parallel tasks...

     Program MATDYN v.5.1.2 starts on  2Dec2015 at  1:46:33 

     This program is part of the open-source Quantum ESPRESSO suite
     for quantum simulation of materials; please cite
         "P. Giannozzi et al., J. Phys.:Condens. Matter 21 395502 (2009);
          URL http://www.quantum-espresso.org", 
     in publications or presentations arising from this work. More details at
     http://www.quantum-espresso.org/quote

     Parallel version (MPI), running on     1 processors
 mass for atomic type   1 not given; uses mass from file GaAs.444.fc                                                                                                                                                                                                                                                     
 mass for atomic type   2 not given; uses mass from file GaAs.444.fc                                                                                                                                                                                                                                                     
Norm of the difference between old and new effective charges:    0.00000000000000000000
Norm of the difference between old and new force-constants:   0.00023417448456807528
 
     MATDYN       :     0.73s CPU         2.20s WALL

 
   This run was terminated on:   1:46:35   2Dec2015            

=------------------------------------------------------------------------------=
   JOB DONE.
=------------------------------------------------------------------------------=
 
TACC: Shutdown complete. Exiting.
